/*--------------------------------*- C++ -*----------------------------------*\
| =========                 |                                                 |
| \\      /  F ield         | OpenFOAM: The Open Source CFD Toolbox           |
|  \\    /   O peration     | Version:  2406                                  |
|   \\  /    A nd           | Website:  www.openfoam.com                      |
|    \\/     M anipulation  |                                                 |
\*---------------------------------------------------------------------------*/
FoamFile
{
    version     2.0;
    format      ascii;
    arch        "LSB;label=32;scalar=64";
    class       volScalarField;
    location    "50";
    object      epsilon;
}
// * * * * * * * * * * * * * * * * * * * * * * * * * * * * * * * * * * * * * //

dimensions      [0 2 -3 0 0 0 0];

internalField   nonuniform List<scalar> 
238188
(
0.132571
0.432768
0.549925
0.118107
0.339104
0.429979
0.515304
0.967295
0.0578796
0.402416
0.475453
0.561079
0.938209
1.40907
0.101596
0.486711
0.860989
1.3531
0.19913
2.00571
4.1066
4.63225
0.809098
0.772081
1.42469
1.78756
1.32252
0.835905
1.2935
1.01162
1.47775
1.36815
0.390003
0.533282
1.73065
3.6048
3.40286
0.000680739
2.54176e-05
7.503e-05
0.0137351
0.00207078
0.000306103
2.93247e-06
1.2144e-07
5.12929e-07
2.43789e-06
4.27774e-06
1.47597e-05
0.0170555
0.0298066
0.0106327
0.000175613
4.45179e-06
3.91488e-09
1.75724e-09
8.73767e-10
7.79219e-09
4.07789e-08
5.60496e-07
1.88294e-06
6.51614e-06
0.0323671
0.447795
1.39812
0.129694
0.0142887
3.69709e-06
6.58557e-12
3.36364e-14
2.65035e-14
2.53415e-13
1.43646e-11
7.55572e-10
4.26108e-08
6.91066e-07
1.94353e-06
0.16197
0.196087
34.3557
9.19701
3.06453
4.01981
6.1956
3.97212e-08
8.52273e-09
2.26671e-14
1.92182e-14
1.82654e-14
1.21699e-12
1.06084e-10
1.15214e-08
8.55813e-07
0.0646577
5.20757
5.4037
0.877406
1.198
1.77992
1.96122
0.0185685
3.62101e-05
7.51024e-14
2.18095e-14
1.84811e-14
1.73936e-14
2.06801e-13
2.35694e-11
1.16331e-08
1.2127e-06
0.0618042
0.0278119
3.26093
0.629329
0.7598
1.15266
1.72598
2.88621
0.00351028
1.48676e-05
2.20563e-12
6.34498e-13
4.91282e-14
1.77127e-14
1.65071e-14
2.62545e-13
1.89571e-11
1.70354e-07
3.94768e-06
0.0418953
0.141023
0.883031
0.68983
0.690503
0.711343
0.749796
1.002
1.71175e-06
4.25825e-11
2.52908e-11
6.24576e-12
3.83282e-13
1.83212e-14
1.66753e-14
1.5465e-14
1.46781e-13
1.77158e-11
1.2271e-06
0.308004
2.48242
0.355002
0.0685011
0.231078
0.366862
0.26946
0.141176
9.97681e-12
2.30416e-12
1.46075e-12
8.95324e-13
2.37531e-13
2.03157e-14
1.66962e-14
1.54892e-14
2.93244e-14
9.45013e-12
4.48921e-07
0.0255831
0.108161
0.240351
0.244787
0.139533
0.00076241
0.000323462
4.16279e-06
1.90443e-08
1.18048e-13
3.13382e-14
2.39962e-14
2.02594e-14
1.83039e-14
1.743e-14
1.64625e-14
1.51644e-14
1.46043e-14
1.81958e-13
3.6503e-07
0.00886078
0.0374818
0.0671804
0.279806
0.387563
0.00362528
0.000120659
9.96985e-07
1.42133e-08
2.54098e-11
2.66418e-14
2.18392e-14
1.90772e-14
1.74708e-14
1.64079e-14
1.55728e-14
1.48565e-14
1.44087e-14
6.04063e-13
1.75782e-07
0.0422323
0.0119283
0.0261837
0.0586109
0.149559
0.00576731
0.000393879
2.88159e-06
1.29439e-08
3.71833e-11
2.32661e-14
2.00683e-14
1.81326e-14
1.68823e-14
1.59448e-14
1.51785e-14
1.4574e-14
1.42452e-14
7.07852e-08
1.28046e-07
0.00267572
0.00706879
0.00817493
0.0045549
0.00105911
0.000573563
8.42247e-06
1.76131e-09
2.40426e-14
2.06949e-14
1.85976e-14
1.72819e-14
1.63128e-14
1.55199e-14
1.48604e-14
1.43284e-14
3.31044e-10
1.11861e-07
5.77586e-07
0.00764978
0.000871511
0.00100048
0.000205923
0.000307838
0.000173787
1.38648e-05
8.81916e-10
4.60858e-14
1.87185e-14
1.73846e-14
1.64867e-14
1.57422e-14
1.50918e-14
1.45254e-14
3.07218e-13
8.14702e-08
1.7672e-07
2.83388e-06
0.0131649
0.000990334
0.000159301
7.12136e-05
5.27934e-05
4.56737e-05
8.43306e-06
1.05582e-09
3.56817e-12
1.71537e-14
1.63421e-14
1.57607e-14
1.52343e-14
1.46854e-14
2.2002e-14
1.84462e-09
2.60829e-07
6.59739e-07
0.0024707
0.000333268
6.39015e-05
2.63969e-05
9.86127e-06
9.82582e-07
5.58955e-10
3.03815e-11
1.84316e-14
1.67505e-14
1.64634e-13
2.97159e-13
1.06952e-12
5.97208e-09
1.52886e-07
4.26837e-07
3.59996e-06
0.00436749
0.000368759
4.81411e-05
9.20332e-06
1.55854e-06
1.24598e-07
4.60872e-09
2.9273e-09
1.52138e-10
2.52965e-11
2.70881e-11
4.2633e-10
3.31206e-09
8.16858e-08
2.50953e-07
2.05451e-06
0.00158004
0.000115663
1.69289e-05
3.42164e-06
8.48475e-07
1.56223e-07
4.16459e-08
4.91683e-08
3.22507e-09
1.0543e-08
1.85578e-08
3.08639e-08
1.9078e-07
1.13026e-06
0.00017905
3.36263e-05
7.71265e-06
2.0932e-06
4.92794e-07
1.49803e-07
6.50782e-08
1.02271e-07
1.7431e-07
3.89481e-07
1.22267e-06
0.000465659
6.94027e-05
1.25975e-05
2.50033e-06
6.22994e-07
8.22827e-07
9.26653e-07
1.52429e-06
9.86701e-06
1.90547e-07
2.10853e-08
0.00202381
0.000196056
2.60919e-06
4.28438e-09
2.03278e-10
3.83438e-10
5.60075e-10
4.78579e-09
2.90025e-08
0.16917
0.0473978
0.00343623
1.73651e-05
1.09466e-07
5.99728e-11
2.37651e-14
6.91413e-14
1.93963e-12
9.72084e-12
4.69202e-11
4.26712e-10
1.82869e-09
0.603748
0.598666
0.0994429
0.0181724
9.24541e-06
3.06753e-09
5.82095e-12
1.6484e-14
1.66121e-14
1.25326e-13
3.30028e-12
3.75229e-12
1.81409e-11
9.34355e-11
1.3656e-09
0.987392
1.34626
1.25365
0.688512
0.321598
0.000288933
3.11232e-09
2.68253e-12
1.77625e-14
1.63872e-14
3.4929e-14
1.60197e-12
6.82177e-12
5.17489e-11
8.74826e-11
3.58353e-10
0.379331
0.511785
0.208684
0.132408
0.035471
0.000658273
3.18992e-08
2.66068e-09
7.57493e-09
1.85448e-14
3.1824e-13
3.62962e-12
2.37551e-11
8.06075e-11
1.72376e-10
2.57763e-10
2.68949e-09
0.151227
0.267826
0.264145
0.356707
0.518412
0.4177
0.0902867
4.79199e-05
6.44358e-08
5.12412e-12
1.71191e-14
1.64373e-14
7.22513e-14
1.66489e-12
1.04251e-11
3.92009e-11
1.39919e-10
1.3464e-09
1.03616e-08
0.137937
0.217698
0.16059
0.137928
0.174863
0.221628
0.259692
0.0163396
7.98773e-13
1.84717e-14
1.70436e-14
1.62153e-14
1.56901e-14
1.53405e-14
5.97711e-14
2.18292e-12
2.35281e-11
2.75688e-10
8.30016e-09
0.0665588
0.0865986
0.00678534
0.00468554
0.00413234
0.00724684
0.0171689
0.000219416
1.9783e-14
1.80522e-14
1.68282e-14
1.6092e-14
1.56035e-14
1.52204e-14
1.48866e-14
4.6644e-14
2.22175e-12
5.09383e-11
3.65718e-09
0.00513535
0.0214773
0.0158771
0.000452951
0.000108651
1.28755e-05
6.49572e-06
1.35168e-06
6.39389e-11
1.87176e-14
1.7588e-14
1.66045e-14
1.59371e-14
1.54511e-14
1.50814e-14
1.47724e-14
1.44428e-14
1.41558e-14
4.91679e-13
3.11101e-10
0.00266362
0.00719552
0.00548242
0.000788694
0.00223441
2.20095e-05
2.42408e-06
5.3224e-09
1.68225e-12
1.80887e-14
1.71409e-14
1.63448e-14
1.573e-14
1.52715e-14
1.4912e-14
1.46061e-14
1.43226e-14
1.40379e-14
1.42347e-14
1.57737e-13
0.00155266
0.00152058
0.00266446
0.00117462
0.000762435
6.75344e-05
8.48174e-06
4.91592e-08
1.2257e-10
1.75937e-14
1.78618e-14
1.59925e-14
1.54563e-14
1.50519e-14
1.47135e-14
1.43975e-14
1.41163e-14
1.38832e-14
5.29255e-14
2.19134e-11
0.000325363
0.000808696
0.000768593
0.000471442
0.000148327
1.55713e-05
2.75654e-07
2.20959e-09
9.62778e-13
1.87848e-13
1.64909e-14
1.51062e-14
1.47855e-14
1.45088e-14
1.42392e-14
1.3964e-14
1.65187e-13
2.34462e-11
7.64899e-09
9.54993e-05
0.000195193
0.000224466
0.000145559
4.78524e-05
6.92604e-06
6.21304e-07
1.7205e-08
4.49229e-11
8.35304e-14
1.65177e-14
1.47639e-14
1.45316e-14
1.42895e-14
1.40691e-14
5.13362e-14
2.56974e-11
3.9554e-10
2.09451e-07
0.000104856
4.37454e-05
4.67443e-05
2.86365e-05
7.83732e-06
1.35368e-06
1.97267e-07
1.35094e-08
2.33918e-10
2.99366e-12
2.64532e-14
2.23192e-14
2.37194e-14
1.4199e-14
2.17763e-13
1.73425e-11
2.50679e-10
1.93902e-09
1.62699e-05
9.88614e-06
5.33593e-06
1.72809e-06
4.16076e-07
8.28912e-08
6.88939e-09
3.40932e-11
1.00016e-13
1.4743e-14
2.53929e-13
1.91785e-12
5.88188e-13
3.7746e-11
3.08381e-10
2.3405e-09
7.2436e-08
8.64866e-05
7.82276e-06
2.70082e-06
9.7962e-07
3.80341e-07
1.524e-07
3.775e-08
5.52402e-10
1.69214e-12
9.59284e-14
7.16457e-12
7.0308e-11
1.21277e-10
7.54725e-10
3.43772e-09
4.18713e-08
0.000223044
1.33395e-05
3.9647e-06
1.44836e-06
6.56498e-07
2.84638e-07
6.90138e-09
2.18385e-10
3.83914e-11
7.25307e-11
6.25042e-10
1.69476e-09
8.88453e-09
7.18708e-08
5.71027e-05
1.56976e-05
4.8813e-06
1.80757e-06
4.93512e-07
1.07805e-08
2.10954e-09
9.58899e-10
4.79106e-09
2.05167e-08
1.14497e-07
0.000343485
4.9942e-05
8.97548e-06
1.59414e-06
3.42936e-07
8.60691e-08
1.71905e-08
6.0537e-08
3.76781e-06
2.1721e-06
1.19834e-06
0.00037659
1.14797e-05
1.66752e-07
2.80739e-09
6.70444e-10
1.2967e-09
1.85749e-09
1.30193e-09
1.51453e-09
0.00419255
0.0405625
0.000264126
5.81403e-07
3.25506e-07
1.43511e-09
8.38876e-11
1.97978e-10
3.54892e-10
9.40964e-10
1.53817e-09
1.58561e-09
3.77376e-08
0.16709
0.00405611
0.00775395
0.000799421
3.24806e-07
2.78736e-07
5.60823e-10
4.32922e-12
1.02904e-11
6.13468e-11
1.90503e-10
4.48835e-10
1.6613e-09
3.56372e-09
3.14869e-08
0.435599
0.0887769
0.013692
0.00590315
0.000482415
6.54645e-07
1.0692e-07
1.94033e-10
1.95012e-13
2.59908e-12
1.69669e-11
8.00036e-11
2.50267e-10
7.83587e-10
3.76535e-09
1.31578e-08
0.136706
0.00221495
0.000789538
0.000643755
3.86289e-05
1.68675e-07
1.48133e-08
1.69049e-11
4.49117e-13
3.30321e-12
1.70259e-11
6.07407e-11
1.90245e-10
5.92021e-10
1.87247e-09
5.74434e-09
3.86159e-08
0.090233
0.101784
0.0131655
0.00747102
0.00269642
4.38647e-05
0.000193846
3.28274e-10
1.5605e-14
1.54946e-14
5.83797e-14
9.70356e-13
4.88042e-12
1.95612e-11
7.24542e-11
2.60251e-10
1.16858e-09
7.99519e-09
2.01109e-07
0.0498967
0.0436914
0.00159093
0.000904118
0.00108652
0.00192001
0.00250972
8.69513e-08
1.79115e-14
1.52128e-14
1.48841e-14
1.4658e-14
2.37516e-14
5.8307e-13
3.69867e-12
1.93836e-11
1.17803e-10
1.2045e-09
1.26447e-08
0.0222236
0.000671116
0.000269856
9.56527e-05
6.38754e-05
4.34624e-05
8.61345e-06
1.18934e-10
4.18285e-13
1.56171e-14
1.48287e-14
1.45553e-14
1.43592e-14
1.71505e-14
4.09725e-13
3.35048e-12
2.02584e-11
1.30244e-10
2.02607e-09
0.00188652
0.00747247
0.000254994
5.65505e-05
1.22246e-05
2.79277e-06
4.71199e-07
2.61262e-08
3.55693e-09
3.72483e-11
8.38607e-14
1.57393e-14
1.44581e-14
1.4255e-14
1.40893e-14
1.39504e-14
1.39687e-14
1.20352e-13
2.66023e-12
1.5323e-10
0.000624588
0.00278271
0.00024282
3.2315e-05
2.9971e-05
4.73464e-06
9.91151e-07
1.82379e-07
3.24201e-08
1.20599e-09
5.39664e-12
7.60717e-14
1.44333e-14
1.41475e-14
1.4004e-14
1.38789e-14
1.37618e-14
1.52992e-14
6.74829e-13
3.64903e-11
0.00220753
0.000876128
0.000351831
3.95542e-05
2.08223e-05
2.06102e-05
3.90614e-06
8.06849e-07
1.52794e-07
1.35778e-08
2.00257e-10
8.05248e-13
1.92501e-14
1.44254e-14
1.3895e-14
1.37843e-14
1.39014e-14
2.95487e-13
8.46747e-12
3.53765e-11
0.000195648
0.000293663
0.000106065
5.76243e-05
3.59826e-05
1.18121e-05
2.73214e-06
5.2266e-07
6.60092e-08
2.62083e-09
3.42096e-11
2.29806e-13
8.24676e-14
1.41006e-14
1.37034e-14
1.36693e-14
1.56195e-14
4.76984e-11
3.69164e-09
5.85205e-05
9.19703e-05
6.44825e-05
4.1137e-05
2.24188e-05
9.67953e-06
3.46984e-06
9.6866e-07
1.67183e-07
5.78229e-09
1.20462e-10
1.80363e-12
2.95895e-12
8.53115e-14
1.37044e-14
4.70405e-14
2.54259e-14
4.96808e-10
4.34807e-08
0.000132246
2.22646e-05
3.15466e-05
1.9686e-05
1.09785e-05
5.43164e-06
2.23879e-06
6.33216e-07
1.05257e-07
1.16549e-08
4.29283e-10
5.35534e-11
2.43089e-11
5.34056e-12
3.94417e-14
1.0969e-13
4.29294e-11
1.57767e-09
2.00104e-05
8.46807e-06
8.4467e-06
4.22177e-06
1.90097e-06
8.2271e-07
2.69417e-07
2.69536e-08
8.30799e-10
1.3201e-11
2.77752e-11
7.28587e-11
2.78765e-11
2.59331e-12
7.08087e-11
1.91428e-09
3.24287e-08
0.000112708
8.40674e-06
3.13974e-06
1.61448e-06
8.72289e-07
4.74929e-07
2.44299e-07
8.85101e-08
8.38334e-09
3.48462e-10
1.60325e-10
2.87372e-10
1.84322e-10
3.83435e-10
1.34676e-09
1.56537e-08
0.000182056
1.08044e-05
2.85205e-06
1.16341e-06
4.88815e-07
3.49656e-07
1.0838e-07
2.23379e-08
3.21301e-09
7.46011e-10
5.23349e-10
1.99569e-09
5.84648e-09
1.77159e-08
3.87527e-05
1.04902e-05
3.37554e-06
1.2379e-06
2.74982e-07
7.75394e-10
1.37201e-10
3.09034e-10
3.11567e-09
1.07364e-08
4.87096e-08
0.000244378
3.81098e-05
5.9961e-06
5.04358e-07
4.41094e-08
4.72731e-09
3.01619e-09
2.39673e-08
6.35751e-06
3.78267e-06
2.57997e-06
0.0046478
2.04857e-05
1.46579e-05
2.98304e-08
5.70389e-09
1.57738e-08
3.96395e-08
2.055e-07
1.07904e-06
0.000357118
0.0002961
0.00410574
0.00039998
1.23278e-05
2.53105e-08
3.38093e-10
4.9371e-10
1.63727e-09
5.62775e-09
1.9075e-08
1.59259e-07
1.04642e-06
0.025079
0.000412397
0.00133738
0.000243982
4.57768e-05
3.71063e-06
4.80283e-09
3.37882e-11
3.12176e-11
7.69163e-11
2.27344e-10
1.00619e-09
4.84486e-09
2.94141e-08
3.33443e-07
0.137913
0.00158328
0.000787971
0.000501013
3.68664e-05
6.93789e-06
7.68499e-07
1.15867e-09
2.63881e-12
2.74407e-12
1.71301e-11
6.94509e-11
2.1819e-10
1.01107e-09
6.76503e-09
6.42354e-08
0.0685513
0.000187512
4.08489e-05
3.89459e-05
3.99825e-06
8.18483e-07
7.87846e-08
9.98796e-11
4.30182e-13
2.85687e-12
1.40189e-11
5.34375e-11
1.79103e-10
5.98248e-10
1.95272e-09
1.32244e-08
1.64221e-07
0.0274447
0.00165905
4.83239e-06
3.92487e-06
3.16265e-06
3.29543e-07
4.52505e-08
9.71032e-10
1.82221e-14
1.5377e-14
4.5085e-14
7.75402e-13
4.38884e-12
1.9645e-11
8.0832e-11
3.27109e-10
2.4006e-09
2.45747e-08
8.26408e-07
0.0148473
8.35857e-05
1.34029e-06
6.11831e-07
4.2539e-07
5.78634e-07
9.57304e-06
3.0705e-10
7.39861e-13
1.60154e-14
1.48875e-14
1.46864e-14
2.90684e-14
6.63815e-13
4.62312e-12
2.799e-11
2.57085e-10
4.50448e-09
7.60058e-08
0.0083975
7.45301e-06
1.09917e-06
1.91155e-06
1.68323e-06
5.52298e-07
8.31137e-08
4.44363e-09
6.55226e-11
6.46372e-14
1.76613e-14
1.45664e-14
1.44013e-14
2.0779e-14
5.04385e-13
4.43562e-12
3.06728e-11
3.33536e-10
7.67452e-09
0.000346539
0.00301685
6.66951e-06
3.06542e-06
1.6988e-06
5.36314e-07
1.80708e-07
7.43316e-08
3.17817e-08
1.9602e-09
2.89312e-12
3.99494e-13
1.50286e-14
1.42613e-14
1.41325e-14
1.40154e-14
1.4167e-14
1.54041e-13
4.00527e-12
3.12608e-10
0.000173824
0.00113605
1.12638e-05
3.9546e-06
5.16976e-06
1.86332e-06
8.93295e-07
3.76883e-07
1.50027e-07
2.78512e-08
2.6416e-10
3.66993e-11
6.27139e-14
1.42334e-14
1.40222e-14
1.39201e-14
1.38139e-14
1.53859e-14
5.9706e-13
8.82411e-11
0.000842944
0.00039397
4.05994e-05
4.97259e-06
5.11526e-06
9.74724e-06
3.32838e-06
1.35303e-06
5.12263e-07
1.30591e-07
8.02666e-09
4.89434e-10
1.8015e-12
2.57418e-14
1.39155e-14
1.38104e-14
1.39606e-14
4.24135e-13
6.88029e-12
1.41854e-11
0.000117619
9.69191e-05
2.51057e-05
1.28279e-05
1.3972e-05
9.03243e-06
3.74069e-06
1.33232e-06
3.77067e-07
5.80587e-08
4.41952e-09
3.6926e-11
9.69057e-13
1.71842e-14
1.37376e-14
1.37452e-14
6.42986e-14
7.73076e-11
3.63199e-09
7.58319e-05
5.11955e-05
2.7279e-05
1.84897e-05
1.3673e-05
8.57897e-06
4.3578e-06
1.76758e-06
4.93695e-07
3.02673e-08
1.69894e-10
6.17152e-12
3.79308e-12
4.79947e-13
1.44664e-14
4.76858e-14
1.17007e-12
6.2672e-10
6.47812e-08
0.000159323
1.97139e-05
1.89353e-05
1.1883e-05
8.23128e-06
4.96491e-06
2.57321e-06
9.20102e-07
1.19511e-07
4.5249e-10
8.28326e-12
1.18237e-11
3.19879e-11
9.29139e-12
2.59894e-13
1.84541e-13
1.15813e-10
2.33601e-09
2.30044e-05
7.46569e-06
6.32675e-06
3.51445e-06
1.87752e-06
8.94457e-07
2.72627e-07
5.62054e-08
3.58135e-10
4.80524e-11
7.24072e-11
1.44558e-10
7.96107e-11
1.98012e-11
1.34082e-10
2.44286e-09
5.512e-08
0.000108015
7.76548e-06
2.82666e-06
1.43205e-06
8.13865e-07
4.40236e-07
2.14471e-07
7.3842e-08
5.71203e-09
6.56357e-10
3.70921e-10
5.70505e-10
3.89466e-10
5.1769e-10
2.41622e-09
2.65156e-08
0.000131949
7.83985e-06
2.02987e-06
8.42796e-07
3.4744e-07
2.30871e-07
7.97231e-08
1.78245e-08
2.87083e-09
9.63221e-10
1.19352e-09
3.95006e-09
8.07947e-09
2.50957e-08
2.3921e-05
6.53054e-06
2.18596e-06
7.82083e-07
1.84836e-07
8.32823e-10
2.45955e-10
8.16003e-10
7.86882e-09
2.65794e-08
9.02331e-08
0.000150403
2.3494e-05
3.78091e-06
3.115e-07
3.67755e-08
6.67581e-09
7.42986e-09
6.31685e-08
1.77948e-05
1.59909e-05
1.02413e-05
0.188441
0.0227195
0.00181877
1.97044e-06
8.49045e-09
2.38753e-08
6.90367e-08
3.92406e-07
2.66757e-06
3.74073e-05
0.000388569
0.001463
0.00106185
0.000134158
3.48694e-07
5.49296e-10
6.71373e-10
2.12812e-09
6.97982e-09
2.20199e-08
2.40612e-07
2.32101e-06
0.00295699
7.78382e-05
0.000225338
0.000129698
8.50783e-05
2.30464e-05
2.91428e-08
9.20474e-11
3.83269e-11
5.79187e-11
2.09985e-10
8.55153e-10
4.57829e-09
2.74804e-08
1.73219e-07
0.0437512
0.000159437
4.55894e-05
3.98086e-05
2.14278e-05
1.31404e-05
3.42146e-06
5.08646e-09
1.03131e-11
1.87576e-12
7.53103e-12
4.59544e-11
1.66389e-10
6.6951e-10
3.60062e-09
1.93301e-08
0.0261415
1.70095e-05
2.75294e-06
3.91342e-06
2.4791e-06
1.37226e-06
2.70406e-07
3.68535e-10
1.5004e-13
1.66982e-12
9.06341e-12
4.07995e-11
1.45834e-10
4.61471e-10
1.30564e-09
4.39314e-09
5.16487e-08
0.00847487
0.000612957
4.03743e-07
2.96008e-07
3.29276e-07
1.76521e-07
5.95159e-08
9.44823e-10
1.15381e-13
1.61835e-14
1.69959e-14
3.60025e-13
2.74987e-12
1.52951e-11
6.45564e-11
2.47168e-10
1.48913e-09
1.86962e-08
1.40732e-06
0.00441285
2.95447e-05
9.62734e-08
4.01601e-08
2.86137e-08
1.06172e-08
1.20523e-08
1.0085e-09
2.00384e-11
2.86178e-13
1.56811e-14
1.46474e-14
2.04721e-14
5.62543e-13
4.184e-12
2.51821e-11
2.51946e-10
5.55777e-09
1.8558e-07
0.00364253
2.24774e-06
5.90538e-08
6.65252e-08
8.3903e-08
3.67957e-08
2.12888e-08
1.09655e-08
1.24809e-09
2.32411e-11
1.6017e-13
1.60874e-14
1.43997e-14
1.95192e-14
4.25648e-13
3.55819e-12
2.84825e-11
4.43847e-10
1.98544e-08
5.3775e-05
0.00154209
1.6095e-06
3.12322e-07
2.79837e-07
1.63064e-07
1.36538e-07
1.07679e-07
6.10763e-08
1.64122e-08
1.3481e-09
1.79305e-11
2.50853e-13
1.45081e-14
1.414e-14
1.40558e-14
1.40566e-14
9.22544e-14
3.60069e-12
4.59636e-10
0.000102016
0.000562291
2.15413e-06
9.4232e-07
1.35183e-06
9.25518e-07
7.40009e-07
4.5338e-07
2.30498e-07
7.61153e-08
1.25766e-08
3.73344e-10
2.89038e-11
5.99092e-14
1.4034e-14
1.39347e-14
1.38544e-14
1.38221e-14
1.00485e-13
2.61875e-11
0.000346629
0.000171361
1.08595e-05
1.37096e-06
2.00471e-06
4.6541e-06
2.56759e-06
1.36479e-06
6.37695e-07
2.242e-07
4.91005e-08
5.50575e-09
3.10594e-10
6.87665e-12
2.01904e-14
1.38368e-14
1.37689e-14
3.77965e-14
2.02426e-12
1.38856e-11
5.55389e-05
3.43134e-05
7.5446e-06
3.72745e-06
3.69192e-06
5.23528e-06
3.03666e-06
1.35469e-06
4.73615e-07
1.14032e-07
1.37484e-08
1.32188e-09
1.09014e-10
3.57308e-13
1.43505e-14
1.37038e-14
1.68793e-14
3.62197e-11
2.54997e-09
5.14604e-05
2.39237e-05
1.13695e-05
7.39345e-06
6.09299e-06
4.86846e-06
2.96852e-06
1.38894e-06
4.53234e-07
8.33583e-08
1.47854e-09
8.68344e-11
1.87761e-11
1.41116e-12
1.64891e-14
2.41456e-14
1.52305e-12
4.3478e-10
8.80531e-08
0.00013304
1.43076e-05
9.92515e-06
5.99164e-06
4.47938e-06
3.01492e-06
1.6575e-06
6.08387e-07
1.31327e-07
2.50628e-10
2.89356e-11
2.54855e-11
3.83641e-11
9.86418e-12
2.9947e-13
1.35609e-13
8.25003e-11
1.77411e-09
2.32799e-05
5.8384e-06
3.90552e-06
2.13306e-06
1.21465e-06
6.12159e-07
2.26368e-07
5.3279e-08
3.87084e-09
4.6078e-10
2.05106e-10
2.016e-10
9.20608e-11
1.76878e-11
9.53125e-11
1.79954e-09
6.50971e-08
0.000106523
7.70617e-06
2.42028e-06
1.07917e-06
6.24559e-07
3.54829e-07
1.79097e-07
6.62014e-08
8.50968e-09
1.25375e-09
6.25148e-10
7.72782e-10
4.73174e-10
4.29007e-10
2.34304e-09
3.23778e-08
0.000107738
6.42897e-06
1.60875e-06
6.56617e-07
2.72539e-07
1.77452e-07
6.21205e-08
1.24545e-08
2.85473e-09
1.39261e-09
2.10495e-09
5.53721e-09
8.16483e-09
3.54835e-08
1.68131e-05
4.72596e-06
1.62288e-06
5.85932e-07
1.42742e-07
9.45912e-09
1.59596e-09
2.5378e-09
1.65638e-08
5.05981e-08
1.59156e-07
9.57706e-05
1.4985e-05
2.50993e-06
2.608e-07
3.04186e-08
6.2984e-09
1.98759e-08
1.48366e-07
6.48943e-06
3.16166e-05
3.4689e-05
0.106762
0.0115073
0.00117674
6.41391e-05
7.45321e-09
2.09322e-08
8.43394e-08
7.36767e-07
5.96977e-06
7.39318e-06
3.0876e-05
0.000193329
0.000372479
7.76179e-05
1.05187e-06
7.96993e-10
5.38515e-10
2.38245e-09
1.01366e-08
3.51723e-08
3.23193e-07
2.83032e-06
0.000485006
1.30724e-05
2.55739e-05
3.33475e-05
3.58614e-05
1.47402e-05
9.56221e-08
1.96627e-10
4.53469e-11
9.41647e-11
3.28611e-10
1.41587e-09
6.36837e-09
3.30637e-08
4.65691e-07
0.0106062
2.83686e-05
3.46249e-06
4.36341e-06
5.91826e-06
5.6956e-06
2.26802e-06
1.33781e-08
2.57911e-11
1.92787e-12
4.84229e-12
3.74886e-11
1.60084e-10
8.01353e-10
5.71664e-09
4.08951e-08
0.00984737
1.91234e-06
3.30812e-07
5.57983e-07
7.43215e-07
5.87483e-07
1.85774e-07
7.22024e-10
4.66591e-13
1.45705e-12
8.14012e-12
3.6921e-11
1.45981e-10
5.38663e-10
1.85992e-09
8.56099e-09
7.90593e-08
0.00230101
0.000197696
3.62349e-08
3.99077e-08
5.37737e-08
4.94629e-08
1.89095e-08
2.98369e-10
1.65175e-13
2.60507e-14
1.86606e-14
4.36863e-13
2.84678e-12
1.53272e-11
7.01373e-11
2.90969e-10
1.55672e-09
1.16777e-08
4.41302e-07
0.00117075
1.08703e-05
6.56041e-09
5.40697e-09
4.62099e-09
2.34155e-09
1.74392e-09
1.26431e-09
2.78798e-11
2.79154e-12
2.52045e-14
1.46134e-14
1.84496e-14
5.82806e-13
4.52117e-12
2.75771e-11
1.97327e-10
2.44129e-09
6.18086e-08
0.00134246
6.93867e-07
4.09888e-09
5.48705e-09
9.2637e-09
1.08824e-08
1.75315e-08
1.14765e-08
2.36052e-09
7.92297e-11
1.7694e-12
1.87425e-14
1.43593e-14
1.52185e-14
2.67397e-13
2.70628e-12
2.1351e-11
2.62657e-10
1.37312e-08
3.16029e-05
0.000714554
4.60376e-07
5.46367e-08
6.80711e-08
7.09002e-08
9.01715e-08
1.00458e-07
5.84016e-08
1.52769e-08
1.00893e-09
5.25587e-11
6.69663e-13
1.45282e-14
1.41377e-14
1.40798e-14
1.39974e-14
4.17136e-14
2.00615e-12
3.72287e-10
0.000130516
0.00025976
5.83837e-07
2.69621e-07
4.33122e-07
4.75677e-07
5.05982e-07
3.82421e-07
1.97878e-07
6.03273e-08
6.74471e-09
6.71814e-10
4.17186e-11
7.01333e-14
1.40347e-14
1.39465e-14
1.38881e-14
1.3794e-14
1.46161e-14
2.39765e-12
0.000285638
7.09994e-05
5.09113e-06
4.32974e-07
7.12626e-07
1.77485e-06
1.72955e-06
9.71244e-07
4.70011e-07
1.57632e-07
2.96621e-08
3.53064e-09
2.57956e-10
8.51526e-12
2.35882e-14
1.38429e-14
1.37907e-14
1.39196e-14
1.78711e-13
3.39801e-12
2.58048e-05
1.41922e-05
2.83815e-06
1.35618e-06
1.28803e-06
1.54893e-06
1.53231e-06
7.82913e-07
2.68826e-07
5.35885e-08
6.69992e-09
6.99684e-10
3.57807e-11
1.1745e-13
1.39135e-14
1.37053e-14
1.41997e-14
1.20507e-11
1.38529e-09
3.44445e-05
1.13639e-05
5.01981e-06
3.08922e-06
2.42076e-06
2.13194e-06
1.44543e-06
6.84823e-07
1.81121e-07
1.4702e-08
6.1225e-10
8.85773e-11
1.53246e-11
9.11886e-13
1.50055e-14
1.44211e-14
2.18527e-13
2.22428e-10
8.15267e-08
0.000103015
9.8403e-06
5.23882e-06
2.9852e-06
2.24061e-06
1.57476e-06
8.66963e-07
2.91594e-07
4.80452e-08
3.74503e-09
4.59323e-10
1.32611e-10
6.14884e-11
1.49545e-11
2.16947e-13
4.12946e-14
3.25613e-11
9.73138e-10
1.99437e-05
4.40699e-06
2.36916e-06
1.24694e-06
7.18204e-07
3.79932e-07
1.55815e-07
4.24792e-08
2.34483e-09
5.0776e-10
2.41806e-10
2.16858e-10
7.53902e-11
1.6521e-11
4.09093e-11
9.37633e-10
6.25234e-08
9.11981e-05
6.94514e-06
2.06026e-06
8.61032e-07
5.034e-07
2.98201e-07
1.5437e-07
5.85213e-08
1.53606e-08
3.6049e-09
1.23806e-09
1.06148e-09
4.80502e-10
2.95658e-10
1.52015e-09
2.69468e-08
9.26446e-05
5.70475e-06
1.44776e-06
5.84126e-07
2.41858e-07
1.50384e-07
4.94885e-08
1.39486e-08
4.26131e-09
1.90299e-09
2.85965e-09
6.37993e-09
6.82945e-09
4.21091e-08
1.40195e-05
3.92033e-06
1.36269e-06
4.90922e-07
1.26346e-07
1.94607e-08
3.60834e-09
5.97603e-09
2.84703e-08
7.74459e-08
2.22357e-07
6.61461e-05
1.07705e-05
1.96342e-06
2.74729e-07
2.70404e-08
1.07142e-08
5.2239e-08
2.98089e-07
4.74061e-06
1.58325e-05
3.19937e-05
0.0549747
0.00652868
0.000665421
2.80366e-05
1.2696e-08
9.05989e-09
5.24479e-08
8.45342e-07
1.30969e-05
2.24153e-06
1.55761e-06
4.99506e-05
0.000140123
4.00513e-05
5.03683e-07
1.50224e-09
2.13867e-10
1.24629e-09
8.48099e-09
4.57123e-08
6.33396e-07
6.2042e-06
9.41389e-05
2.35889e-06
4.29562e-06
1.07382e-05
1.36468e-05
7.81618e-06
8.90211e-08
3.63026e-10
2.2592e-11
9.075e-11
3.7714e-10
2.24549e-09
1.25e-08
7.76942e-08
1.45569e-06
0.0025921
4.75642e-06
6.55909e-07
1.49462e-06
2.25978e-06
2.27889e-06
1.21055e-06
1.39008e-08
3.78134e-11
7.82382e-13
4.52036e-12
3.19289e-11
1.31195e-10
8.43692e-10
6.80984e-09
6.2797e-08
0.00169582
1.13532e-07
1.30581e-07
2.29607e-07
3.08967e-07
2.32204e-07
8.61587e-08
4.19531e-10
3.68055e-14
9.10038e-13
4.96276e-12
2.3709e-11
1.02738e-10
4.39507e-10
1.83323e-09
1.21407e-08
1.72378e-07
0.000490791
5.24842e-05
8.1968e-09
1.49501e-08
2.14877e-08
1.96349e-08
4.76561e-09
8.56295e-12
4.7063e-14
1.7535e-14
1.83938e-14
3.51846e-13
2.2342e-12
1.1996e-11
6.11105e-11
3.02392e-10
2.30569e-09
2.54941e-08
1.16321e-06
0.000264285
3.38759e-06
1.29114e-09
1.94151e-09
1.89007e-09
9.62397e-10
9.66356e-10
5.05043e-10
7.19597e-12
6.36361e-13
1.47e-14
1.45634e-14
2.4687e-14
7.11451e-13
5.80056e-12
3.69056e-11
3.35555e-10
4.29258e-09
9.58397e-08
0.000437565
1.69087e-07
7.07607e-10
1.34355e-09
2.71835e-09
5.50256e-09
1.16026e-08
6.51026e-09
6.41108e-10
5.23532e-11
1.96065e-14
1.46353e-14
1.43156e-14
1.48198e-14
2.97744e-13
3.69272e-12
3.15082e-11
3.00226e-10
1.13916e-08
7.85848e-05
0.000269116
1.01617e-07
1.20991e-08
2.08738e-08
3.17191e-08
4.86685e-08
6.865e-08
3.54706e-08
7.31572e-09
5.51126e-10
6.2499e-13
4.82962e-14
1.4212e-14
1.41285e-14
1.409e-14
1.40266e-14
6.26365e-14
2.58857e-12
3.46634e-10
0.000148615
0.000101832
1.73934e-07
7.80557e-08
1.49828e-07
2.25833e-07
2.82511e-07
2.49281e-07
1.15541e-07
2.89525e-08
3.90737e-09
2.91288e-11
4.74699e-12
1.64976e-14
1.39957e-14
1.39588e-14
1.39179e-14
1.38188e-14
1.44261e-14
3.63403e-13
0.000264578
2.73764e-05
3.01711e-06
1.42921e-07
2.18412e-07
5.64518e-07
1.0198e-06
5.37569e-07
2.45137e-07
7.39014e-08
1.30466e-08
9.07152e-10
5.23452e-11
4.32436e-13
1.43307e-14
1.3836e-14
1.38154e-14
1.37858e-14
1.44631e-14
1.71881e-12
1.29182e-05
6.34008e-06
1.29597e-06
5.73396e-07
5.08275e-07
5.47086e-07
5.77591e-07
3.27472e-07
1.09414e-07
2.1072e-08
5.98856e-10
5.47052e-12
3.50939e-13
1.48691e-14
1.37604e-14
1.37202e-14
1.42611e-14
2.64089e-12
6.0722e-10
2.59801e-05
5.82726e-06
2.41414e-06
1.44549e-06
1.08255e-06
9.26943e-07
6.46185e-07
3.08333e-07
7.58419e-08
8.14931e-09
2.78167e-10
3.15343e-11
5.40692e-12
1.18293e-13
1.38162e-14
1.37008e-14
1.53223e-14
9.8182e-11
5.09834e-08
8.52487e-05
7.19843e-06
2.97925e-06
1.58614e-06
1.15817e-06
8.18155e-07
4.53856e-07
1.61941e-07
1.25825e-08
1.41692e-10
2.61419e-11
4.76699e-11
3.97479e-11
5.87026e-12
2.79405e-14
1.46488e-14
8.83958e-12
4.44858e-10
1.74189e-05
3.45192e-06
1.54478e-06
7.87596e-07
4.60811e-07
2.54552e-07
1.1017e-07
3.17105e-08
4.10763e-09
7.40395e-10
2.98614e-10
2.54644e-10
2.93355e-11
1.75696e-12
7.69769e-12
4.32497e-10
5.52376e-08
7.83531e-05
6.27981e-06
1.81316e-06
7.49456e-07
4.4554e-07
2.67737e-07
1.37548e-07
4.99923e-08
8.14007e-09
1.94064e-09
9.11907e-10
1.26325e-09
3.90577e-10
1.66205e-10
7.1429e-10
1.76503e-08
8.19074e-05
5.34362e-06
1.40675e-06
5.69463e-07
2.31192e-07
1.29041e-07
4.01673e-08
1.10867e-08
4.03621e-09
1.96471e-09
4.17438e-09
5.93861e-09
5.93463e-09
4.17341e-08
1.25545e-05
3.4799e-06
1.22081e-06
4.28631e-07
1.18152e-07
2.3015e-08
5.96101e-09
1.11699e-08
4.73391e-08
9.35975e-08
2.95578e-07
4.82827e-05
8.57737e-06
1.64309e-06
2.11517e-07
2.48608e-08
2.7423e-08
1.09135e-07
5.2132e-07
1.02751e-05
1.20925e-05
1.1661e-05
0.0286987
0.00332742
0.000369345
9.85838e-06
3.6334e-08
2.65288e-09
1.53525e-08
3.83594e-07
1.01572e-05
3.75699e-05
2.90306e-06
1.56631e-05
5.84263e-05
2.2541e-05
4.6126e-07
2.6896e-09
8.9546e-11
2.76055e-10
3.16459e-09
2.63313e-08
7.00169e-07
1.25532e-05
1.18719e-05
5.43525e-07
1.41804e-06
5.6177e-06
7.06539e-06
4.68828e-06
1.05539e-07
5.15078e-10
1.11254e-11
3.99386e-11
2.12463e-10
1.65103e-09
1.43934e-08
1.35723e-07
2.92719e-06
0.000422488
6.16333e-07
3.19173e-07
9.53149e-07
1.46383e-06
1.35029e-06
7.5215e-07
1.3569e-08
2.80192e-11
2.45732e-13
2.99893e-12
2.27293e-11
9.81155e-11
8.01644e-10
7.06293e-09
6.32475e-08
0.00065787
2.32786e-08
1.00863e-07
1.83397e-07
2.35919e-07
1.4348e-07
4.81997e-08
1.0202e-10
1.65798e-14
2.94344e-13
2.27426e-12
1.2493e-11
5.90304e-11
2.81663e-10
1.33728e-09
1.05195e-08
2.40037e-07
7.83107e-05
1.32465e-05
4.51084e-09
1.05398e-08
1.77704e-08
1.58802e-08
2.64199e-09
1.09006e-12
1.3143e-13
1.49064e-14
1.48966e-14
7.70982e-14
1.03245e-12
6.39119e-12
3.57385e-11
2.01843e-10
1.99823e-09
3.15979e-08
2.20757e-06
5.81082e-05
7.26615e-07
5.46477e-10
1.15959e-09
1.43555e-09
6.89075e-10
3.29133e-10
3.67387e-11
2.87766e-11
2.59824e-14
1.46908e-14
1.44989e-14
2.34617e-14
6.09152e-13
4.86152e-12
3.29684e-11
3.76307e-10
5.85381e-09
1.59484e-07
0.000137889
2.72372e-08
1.66614e-10
3.96191e-10
8.85772e-10
2.14707e-09
5.46544e-09
2.43359e-09
2.90892e-10
1.73501e-12
3.26936e-14
1.43979e-14
1.42849e-14
1.73238e-14
6.68925e-13
6.37853e-12
5.16632e-11
5.04604e-10
1.88583e-08
7.41902e-05
9.06939e-05
1.58115e-08
2.74413e-09
6.36395e-09
1.26552e-08
2.28219e-08
3.60512e-08
1.49588e-08
1.95802e-09
4.81494e-11
2.57864e-12
1.51703e-14
1.41908e-14
1.41157e-14
1.40947e-14
1.42873e-14
3.71953e-13
8.30421e-12
8.37212e-10
0.000111482
3.53981e-05
8.8763e-08
2.08701e-08
5.01076e-08
9.78582e-08
1.4549e-07
1.29923e-07
5.19594e-08
9.43894e-09
8.11324e-10
3.95979e-11
1.49463e-13
1.41044e-14
1.40016e-14
1.39728e-14
1.39393e-14
1.38325e-14
1.44331e-14
8.34652e-13
0.000210987
9.92624e-06
1.61129e-06
5.7827e-08
6.38953e-08
1.56438e-07
3.19552e-07
2.49071e-07
1.06486e-07
2.63013e-08
3.12081e-09
1.97121e-10
9.75216e-12
2.31391e-14
1.38934e-14
1.38453e-14
1.3844e-14
1.37796e-14
1.43696e-14
7.29355e-13
7.34329e-06
2.89901e-06
6.63409e-07
2.80327e-07
2.15304e-07
2.5169e-07
2.36356e-07
1.32829e-07
3.69484e-08
4.15367e-09
2.04758e-10
1.11642e-11
6.33787e-14
1.39021e-14
1.37627e-14
1.37383e-14
1.43206e-14
1.17063e-12
2.02403e-10
2.12047e-05
3.36947e-06
1.28584e-06
7.56398e-07
5.44471e-07
4.54491e-07
3.10883e-07
1.43585e-07
3.0145e-08
1.5316e-09
8.09788e-12
6.25039e-12
1.3781e-12
1.82902e-14
1.37432e-14
1.37e-14
1.43347e-14
4.29828e-11
2.34233e-08
7.45866e-05
5.68666e-06
1.91444e-06
9.36444e-07
6.54639e-07
4.57669e-07
2.55395e-07
9.09563e-08
4.81225e-09
1.14605e-10
2.07304e-11
4.06606e-11
2.3125e-11
8.8589e-13
1.48983e-14
1.42667e-14
2.57657e-12
1.89068e-10
1.5906e-05
2.88308e-06
1.12413e-06
5.60704e-07
3.31811e-07
1.85641e-07
7.62019e-08
1.84633e-08
1.11578e-09
2.99058e-10
2.17515e-10
2.62224e-10
7.69569e-12
1.64426e-13
1.99882e-12
1.76323e-10
4.43571e-08
7.28735e-05
6.00022e-06
1.67892e-06
6.90207e-07
4.08138e-07
2.37087e-07
1.09353e-07
2.40137e-08