/*--------------------------------*- C++ -*----------------------------------*\
| =========                 |                                                 |
| \\      /  F ield         | OpenFOAM: The Open Source CFD Toolbox           |
|  \\    /   O peration     | Version:  2406                                  |
|   \\  /    A nd           | Website:  www.openfoam.com                      |
|    \\/     M anipulation  |                                                 |
\*---------------------------------------------------------------------------*/
FoamFile
{
    version     2.0;
    format      ascii;
    arch        "LSB;label=32;scalar=64";
    class       volScalarField;
    location    "50";
    object      k;
}
// * * * * * * * * * * * * * * * * * * * * * * * * * * * * * * * * * * * * * //

dimensions      [0 2 -2 0 0 0 0];

internalField   nonuniform List<scalar> 
238188
(
0.0895452
0.0767312
0.098656
0.0979409
0.0666456
0.0832344
0.0872806
0.166107
0.0978682
0.0713404
0.0912728
0.093702
0.146943
0.189068
0.0710338
0.0852376
0.140229
0.220738
0.0957166
0.946627
0.572508
0.9134
0.266983
0.185837
0.299098
0.344761
0.349794
0.190757
0.216555
0.211593
0.27366
0.298893
0.119236
0.129978
0.255734
0.744858
0.606751
0.00151646
0.000155688
0.000318184
0.0187415
0.00503285
0.000785206
1.39801e-05
1.6817e-06
6.20546e-06
2.55385e-05
4.83534e-05
0.000109927
0.00961998
0.0210163
0.00857155
0.000386864
8.74998e-06
2.10355e-08
7.09983e-09
1.13591e-08
9.34012e-08
4.40495e-07
5.23801e-06
2.12681e-05
5.64506e-05
0.011279
0.0739816
0.273459
0.0412907
0.00440058
3.56294e-06
1.67787e-11
3.31177e-12
4.14399e-14
2.88166e-12
1.89663e-10
9.67076e-09
4.73309e-07
7.70464e-06
2.19895e-05
0.0462275
0.0340816
3.63439
1.31673
0.598414
0.657461
0.817241
4.73681e-06
6.71176e-06
4.07907e-15
2.21421e-15
9.4507e-15
1.65649e-11
1.50151e-09
1.35399e-07
8.70566e-06
0.0206571
0.709625
0.741692
0.253302
0.312256
0.407083
0.393507
0.0941723
0.022623
5.64206e-11
8.75017e-15
1.7907e-15
5.1301e-15
1.6211e-12
3.55953e-10
1.37026e-07
1.71373e-05
0.0244888
0.013849
0.457888
0.177538
0.232178
0.326479
0.435937
0.591512
0.0465934
0.0161499
2.55117e-11
2.71172e-12
9.04076e-14
1.26641e-15
5.78833e-15
2.41295e-12
3.28197e-10
1.59829e-06
5.61699e-05
0.0183368
0.0447943
0.163815
0.182718
0.18988
0.237069
0.279993
0.358068
3.01624e-06
2.28339e-10
1.17847e-10
2.46551e-11
9.10601e-13
1.44912e-15
1e-15
1e-15
9.29383e-13
3.40194e-10
1.97386e-05
0.0748271
0.421739
0.0716722
0.0219703
0.0439338
0.0710298
0.0807398
0.0673782
2.48018e-11
7.33088e-12
3.87556e-12
1.40589e-12
1.41738e-13
1.58807e-15
1e-15
1e-15
4.02898e-13
1.85875e-10
5.86564e-06
0.0130062
0.0330694
0.0602441
0.0567868
0.0368453
0.000547556
7.25539e-05
2.73853e-06
2.81119e-08
1.85516e-13
5.61808e-15
2.98597e-15
1.69778e-15
1.11438e-15
1e-15
1e-15
1e-15
1e-15
9.1907e-13
6.34084e-06
0.00502793
0.014065
0.0232241
0.0766454
0.128674
0.00226025
0.000174331
1.63836e-06
2.28045e-08
2.43858e-11
3.18305e-15
1.76921e-15
1.02436e-15
1e-15
1e-15
1e-15
1e-15
1e-15
7.11718e-14
4.72758e-06
0.020693
0.00494807
0.0109478
0.0215276
0.0539595
0.00250336
0.000516905
5.08348e-06
2.18404e-08
3.64351e-11
1.851e-15
1.08457e-15
1e-15
1e-15
1e-15
1e-15
1e-15
1.51016e-15
1.48771e-06
2.63985e-06
0.0014215
0.0033791
0.00417752
0.00230501
0.000643627
0.000684309
1.53762e-05
3.01153e-09
5.82512e-15
1.18097e-15
1e-15
1e-15
1e-15
1e-15
1e-15
1e-15
2.07579e-09
3.27172e-06
9.62698e-06
0.00536577
0.000565885
0.000711283
0.000195929
0.000302919
0.000248978
2.67149e-05
1.58445e-09
3.78297e-14
1e-15
1e-15
1e-15
1e-15
1e-15
1e-15
1e-15
2.24615e-06
3.96436e-06
3.7995e-05
0.0111964
0.00123947
0.000206112
9.55822e-05
7.98682e-05
7.97008e-05
1.81633e-05
3.29428e-09
5.2326e-12
1.08711e-15
1e-15
1.79381e-15
1.02917e-15
1e-15
9.67353e-15
2.49679e-09
7.27886e-06
1.12366e-05
0.00382763
0.000718859
0.000169171
7.3395e-05
2.90544e-05
4.18159e-06
2.35062e-09
3.72343e-12
4.12737e-14
6.82023e-15
2.64592e-13
2.35253e-13
1.22742e-12
6.50439e-08
3.95054e-06
8.00967e-06
4.37132e-05
0.00488296
0.000823699
0.000150699
3.46223e-05
6.49067e-06
4.71261e-07
1.34422e-08
2.58961e-08
8.39124e-13
5.8452e-13
2.32679e-10
4.02577e-10
5.88745e-08
1.97953e-06
5.19359e-06
2.73435e-05
0.0015814
0.000218788
4.76477e-05
1.24264e-05
3.88743e-06
8.66114e-07
3.77978e-07
6.11882e-07
4.11679e-08
1.8461e-07
3.48017e-07
5.63347e-07
3.82938e-06
1.9051e-05
0.000438411
0.000120434
3.7854e-05
1.36908e-05
4.31367e-06
1.99705e-06
1.0336e-06
1.82579e-06
3.24923e-06
6.12816e-06
1.7647e-05
0.000863754
0.000213305
6.37295e-05
1.89247e-05
7.09011e-06
1.28127e-05
1.48833e-05
2.32418e-05
3.52023e-05
1.13374e-06
1.51381e-07
0.00381293
0.00052622
8.36053e-06
2.60958e-08
2.48201e-09
4.45471e-09
5.72424e-09
3.80392e-08
2.04158e-07
0.0427345
0.0228511
0.00359264
2.42307e-05
4.53018e-07
4.49654e-10
3.60855e-14
3.53212e-13
7.51925e-12
1.03698e-10
5.3157e-10
4.8261e-09
1.82484e-08
0.14617
0.154612
0.034123
0.00830343
3.72164e-06
1.48992e-08
1.7615e-11
3.31276e-15
6.62965e-15
2.39462e-13
7.90875e-12
3.01308e-11
2.17168e-10
1.28734e-09
1.80283e-08
0.213571
0.298736
0.298153
0.196575
0.094049
0.000106522
5.96245e-09
7.0182e-12
3.63668e-14
2.34942e-15
5.16448e-14
1.5286e-12
5.79346e-11
6.53951e-10
1.33582e-09
5.80421e-09
0.102778
0.137323
0.0847853
0.0548823
0.0158433
0.000446267
7.06737e-08
2.07746e-07
5.68965e-10
1.99177e-14
5.8325e-13
2.61686e-11
3.01245e-10
1.13276e-09
2.58095e-09
4.51715e-09
4.91137e-08
0.0484428
0.0833277
0.102319
0.143215
0.190746
0.156486
0.0412142
3.4711e-05
6.89909e-10
4.24623e-10
1e-15
9.71913e-15
3.94969e-13
1.35439e-11
1.37393e-10
5.68794e-10
2.20095e-09
2.37478e-08
2.03982e-07
0.0462046
0.0710678
0.0728362
0.0731289
0.0918377
0.118365
0.146695
0.0103343
1.14474e-12
1e-15
1e-15
1e-15
1e-15
5.82084e-15
3.94302e-13
2.53353e-11
3.57064e-10
5.17586e-09
1.6233e-07
0.0241965
0.0288324
0.00430051
0.00331903
0.00307277
0.00471053
0.00941797
1.31731e-05
1e-15
1e-15
1e-15
1e-15
1e-15
1e-15
3.69711e-15
3.59123e-13
2.71331e-11
9.66756e-10
6.99873e-08
0.00224712
0.00905094
0.00653328
0.000278218
8.02959e-05
9.0458e-06
2.82079e-06
2.59948e-07
4.81856e-15
1e-15
1e-15
1e-15
1e-15
1e-15
1e-15
1e-15
1e-15
1.51874e-15
5.95589e-12
6.30811e-09
0.00167602
0.00350226
0.00277261
0.000521539
0.00115114
2.50204e-05
4.35736e-06
1.43925e-08
2.66969e-12
1e-15
1e-15
1e-15
1e-15
1e-15
1e-15
1e-15
1e-15
1e-15
2.95068e-15
2.24719e-13
0.00104541
0.000849227
0.00153054
0.000804438
0.000526127
6.89111e-05
1.44872e-05
1.28331e-07
3.20162e-10
1e-15
1.53305e-15
1e-15
1e-15
1e-15
1e-15
1e-15
1e-15
1e-15
3.00632e-13
3.18265e-11
0.000211291
0.000516371
0.000545068
0.000376854
0.000137585
2.11e-05
6.45537e-07
5.67683e-09
3.46102e-13
1.70667e-13
1.87242e-15
1e-15
1e-15
1e-15
1e-15
1e-15
2.46007e-13
5.12981e-11
1.38832e-07
9.59531e-05
0.000141428
0.00017018
0.000122568
4.49661e-05
8.32945e-06
1.24942e-06
3.69934e-08
5.72665e-11
3.29162e-15
1e-15
1e-15
1.14166e-15
1e-15
1e-15
9.56689e-14
5.14932e-10
5.82806e-09
2.86275e-06
0.000125655
4.03209e-05
4.0548e-05
2.59391e-05
7.65382e-06
1.78017e-06
3.48472e-07
2.33945e-08
2.72331e-10
1.6243e-15
1e-15
1e-15
1.33067e-14
1e-15
4.5782e-13
2.64564e-10
5.12023e-09
3.47753e-08
2.43456e-05
1.11978e-05
5.89293e-06
2.11013e-06
6.38632e-07
1.48466e-07
1.02414e-08
8.37649e-14
1e-15
1e-15
3.84724e-13
5.10847e-12
1.70394e-13
6.58928e-10
5.8095e-09
4.15418e-08
1.07224e-06
0.000100487
1.27563e-05
4.71332e-06
1.9264e-06
8.93048e-07
4.14854e-07
8.03024e-08
6.34274e-11
6.86684e-14
6.03041e-14
6.64438e-11
1.22372e-09
1.72818e-09
1.39358e-08
5.68881e-08
6.29329e-07
0.000260559
2.46223e-05
9.71984e-06
4.29913e-06
2.29617e-06
1.12528e-06
1.34546e-08
1.35682e-14
4.49517e-11
8.375e-10
1.20745e-08
3.15526e-08
1.62012e-07
1.04992e-06
0.000120573
4.61262e-05
1.92821e-05
8.78095e-06
2.48346e-06
4.59059e-09
5.5597e-09
1.02177e-08
8.94842e-08
3.26729e-07
1.7753e-06
0.000709758
0.000157273
4.2613e-05
1.06053e-05
3.14137e-06
9.61277e-07
2.46064e-07
1.02403e-06
1.9418e-05
1.22814e-05
7.04122e-06
0.000772675
2.89396e-05
9.09812e-07
2.38593e-08
7.61516e-09
1.51293e-08
2.06995e-08
1.34969e-08
1.41968e-08
0.00163111
0.0173685
0.000366707
1.39177e-06
7.39948e-07
1.43009e-09
6.0861e-10
1.98267e-09
4.26111e-09
1.1568e-08
1.9023e-08
1.88612e-08
3.57768e-07
0.0513537
0.0023652
0.00456507
0.000434474
7.46835e-07
6.21302e-07
1.33995e-09
1.20576e-11
5.58372e-11
6.08855e-10
2.3419e-09
6.06936e-09
2.21192e-08
4.72488e-08
3.80418e-07
0.111279
0.0308519
0.00752781
0.00319942
0.000281191
1.39998e-06
2.44436e-07
6.57467e-10
1.36667e-13
4.06271e-12
1.41797e-10
9.32384e-10
3.26313e-09
1.08381e-08
5.1615e-08
1.72125e-07
0.0467659
0.00147487
0.000648413
0.000458638
2.92953e-05
3.84149e-07
3.44027e-08
5.63671e-11
8.23444e-13
2.63324e-11
1.91656e-10
7.76622e-10
2.56448e-09
8.15058e-09
2.57215e-08
8.06662e-08
4.90861e-07
0.031027
0.0393906
0.00778591
0.00459727
0.0017878
9.7885e-06
9.7252e-09
1.04613e-10
1e-15
7.63104e-15
3.08074e-13
6.96073e-12
5.47643e-11
2.47268e-10
9.65398e-10
3.54204e-09
1.6307e-08
1.09625e-07
2.32656e-06
0.0200124
0.0182184
0.00117256
0.000616849
0.000695001
0.00127518
0.00155482
2.00764e-08
4.38364e-15
1e-15
1e-15
2.79535e-15
1.39311e-13
4.14624e-12
4.31475e-11
2.5563e-10
1.66653e-09
1.78939e-08
1.88012e-07
0.00993711
0.000475444
0.000224597
6.86793e-05
3.93157e-05
2.69042e-05
2.3675e-06
2.71125e-11
9.24706e-14
1e-15
1e-15
1e-15
1.31484e-15
6.53183e-14
3.10358e-12
4.24757e-11
2.8228e-10
1.95201e-09
3.57023e-08
0.000933933
0.00379158
0.000201525
5.29926e-05
9.96597e-06
2.03991e-06
3.80638e-07
4.29262e-08
4.31186e-09
1.62944e-11
1.88897e-14
1e-15
1e-15
1e-15
1e-15
1e-15
5.07269e-15
1.00964e-12
3.74038e-11
2.77467e-09
0.000456338
0.0015961
0.000198326
3.27684e-05
2.34975e-05
6.86072e-06
1.61061e-06
2.93504e-07
4.64696e-08
1.0682e-09
1.72471e-12
2.11235e-15
1e-15
1e-15
1e-15
1e-15
1e-15
1.46605e-14
2.63512e-12
6.6305e-10
0.00158417
0.000546097
0.000290572
4.40293e-05
2.86538e-05
2.80026e-05
5.86251e-06
1.26322e-06
2.29252e-07
1.46891e-08
1.52681e-10
2.30482e-13
2.51431e-15
1.6168e-15
1e-15
1e-15
2.02717e-15
5.18843e-13
3.50081e-12
2.74895e-12
0.000143106
0.000236327
0.000105291
6.71261e-05
4.52611e-05
1.62577e-05
4.10123e-06
7.8541e-07
8.13952e-08
3.38323e-09
3.04015e-11
8.11672e-14
5.25872e-14
1.33135e-15
1e-15
1e-15
2.33162e-14
6.45856e-10
6.6114e-08
6.11098e-05
7.70603e-05
6.64307e-05
4.7912e-05
2.78464e-05
1.29252e-05
4.87569e-06
1.34845e-06
1.96642e-07
6.19087e-09
3.83387e-12
9.09929e-15
3.52942e-12
4.29434e-14
1e-15
1.07148e-14
8.23722e-15
7.68226e-09
7.23522e-07
0.000138271
2.27506e-05
3.31718e-05
2.33532e-05
1.42763e-05
7.36491e-06
3.02706e-06
6.81776e-07
1.55475e-08
7.63315e-12
1.44039e-14
2.54994e-12
1.15947e-10
3.19543e-12
1.95576e-14
4.69712e-14
5.65742e-10
2.72339e-08
2.87389e-05
1.01998e-05
1.04931e-05
5.69164e-06
2.80695e-06
1.18334e-06
3.53557e-07
3.42524e-08
9.45529e-11
2.18107e-12
6.47225e-11
8.56446e-10
2.77347e-10
1.87121e-12
7.9926e-10
3.43883e-08
5.34056e-07
0.000141707
1.49818e-05
5.45799e-06
3.05811e-06
1.82393e-06
1.04797e-06
5.89642e-07
2.065e-07
1.70997e-08
6.08881e-10
4.02633e-10
4.06975e-09
2.70808e-09
6.17194e-09
2.46855e-08
2.75349e-07
0.000244363
2.25147e-05
7.42273e-06
3.38677e-06
1.63167e-06
1.4266e-06
4.64463e-07
1.81641e-08
5.3265e-10
2.0103e-10
8.34656e-09
3.83496e-08
1.14851e-07
2.93647e-07
9.11785e-05
3.32936e-05
1.38359e-05
6.13345e-06
1.25092e-06
2.07056e-10
3.24055e-10
4.38507e-09
6.05322e-08
1.97459e-07
8.97572e-07
0.000548399
0.000126826
2.86967e-05
2.28924e-06
2.22552e-07
3.67255e-08
4.88531e-08
4.29481e-07
3.82671e-05
2.36885e-05
1.60908e-05
0.00303386
4.38725e-05
2.89597e-05
1.01412e-07
5.98243e-08
1.70634e-07
3.93796e-07
1.82605e-06
8.26284e-06
0.000123755
0.00024173
0.00266474
0.000438749
2.23543e-05
1.34342e-08
3.00263e-09
5.05146e-09
1.8996e-08
6.29874e-08
2.0078e-07
1.55349e-06
8.79994e-06
0.0089101
0.000368744
0.00108481
0.000238009
6.64459e-05
7.4866e-06
1.04763e-08
2.80054e-10
2.11112e-10
7.56359e-10
2.62168e-09
1.25325e-08
5.77734e-08
3.26285e-07
3.15751e-06
0.042679
0.000894827
0.000603478
0.00037197
4.65785e-05
1.28285e-05
1.66388e-06
3.89426e-09
7.79296e-12
1.25277e-11
1.60264e-10
7.85877e-10
2.66618e-09
1.25579e-08
7.74284e-08
6.47016e-07
0.0239445
0.000160944
4.13767e-05
3.62468e-05
6.07326e-06
1.69338e-06
1.79337e-07
4.07668e-10
9.85388e-13
2.21677e-11
1.4938e-10
6.39253e-10
2.23827e-09
7.53159e-09
2.41139e-08
1.54073e-07
1.67904e-06
0.0114916
0.000924007
6.51364e-06
4.9246e-06
3.48757e-06
5.67478e-07
9.9749e-08
2.0599e-09
2.33681e-15
6.31051e-15
2.65062e-13
5.65843e-12
4.63699e-11
2.33738e-10
1.01019e-09
4.13453e-09
3.0054e-08
2.80726e-07
7.65002e-06
0.00704914
7.01926e-05
2.00704e-06
8.22568e-07
3.68144e-07
1.52271e-07
3.70362e-06
4.42036e-10
3.30162e-14
1e-15
1e-15
3.5125e-15
2.03873e-13
5.51743e-12
5.27501e-11
3.5189e-10
3.32984e-09
5.57415e-08
8.64289e-07
0.00430958
8.59046e-06
1.32667e-06
1.46604e-06
9.24559e-07
3.3491e-07
3.53935e-08
7.43689e-09
1.6046e-11
1.73383e-14
1e-15
1e-15
2.03205e-15
1.44759e-13
5.09329e-12
5.54517e-11
4.01155e-10
4.35804e-09
1.01443e-07
0.000201417
0.00173709
7.53965e-06
3.37649e-06
1.65667e-06
5.23575e-07
2.88668e-07
1.40619e-07
5.59354e-08
2.39794e-09
1.6827e-12
1e-15
1e-15
1e-15
1e-15
1e-15
9.50777e-15
1.64761e-12
5.17016e-11
4.43803e-09
0.000150832
0.000740201
1.22411e-05
5.03371e-06
5.98768e-06
3.12067e-06
1.61555e-06
6.88583e-07
2.67855e-07
3.76165e-08
2.35099e-10
3.64002e-14
1e-15
1e-15
1e-15
1e-15
1e-15
1.44333e-14
3.71596e-12
1.33162e-09
0.000729835
0.000277712
4.05931e-05
7.16779e-06
8.65174e-06
1.6221e-05
5.70164e-06
2.38507e-06
9.12647e-07
2.06336e-07
1.18575e-08
3.09651e-11
5.64609e-14
2.54601e-15
1e-15
1e-15
2.45913e-15
9.48017e-13
2.15667e-11
4.39892e-11
0.000100495
8.81903e-05
2.96095e-05
1.81232e-05
2.17122e-05
1.43351e-05
6.2148e-06
2.28746e-06
6.32232e-07
9.36176e-08
3.67134e-09
2.05783e-11
1.50607e-13
4.25876e-15
1e-15
1.30585e-15
3.03282e-13
1.20154e-09
5.49781e-08
9.33142e-05
4.97755e-05
3.19225e-05
2.45998e-05
1.95834e-05
1.29469e-05
6.83357e-06
2.81078e-06
7.26214e-07
4.09442e-08
1.47382e-10
3.85501e-13
2.13741e-11
2.29496e-13
3.48663e-15
3.50816e-14
2.86774e-13
9.39812e-09
9.15351e-07
0.000189347
2.44655e-05
2.23426e-05
1.59484e-05
1.19743e-05
7.49318e-06
3.92135e-06
1.25153e-06
5.41065e-08
5.64869e-11
2.04584e-13
2.19176e-11
2.65964e-10
1.9258e-11
2.11913e-13
4.41706e-13
9.4134e-10
3.70302e-08
3.7086e-05
1.05994e-05
8.76794e-06
5.31656e-06
3.03538e-06
1.4019e-06
3.68709e-07
9.84187e-09
1.54928e-11
2.27631e-11
1.64499e-10
1.4239e-09
5.90269e-10
1.36969e-11
1.87142e-09
3.88607e-08
7.98087e-07
0.000151723
1.57262e-05
5.53123e-06
2.97172e-06
1.78239e-06
9.92186e-07
4.99647e-07
1.56734e-07
1.09271e-08
7.54467e-10
9.10718e-10
6.69545e-09
5.00684e-09
8.34855e-09
4.14314e-08
4.09231e-07
0.000200839
1.84864e-05
5.77816e-06
2.58255e-06
1.17864e-06
9.82392e-07
3.59848e-07
2.977e-08
2.89077e-09
1.56599e-09
1.82777e-08
6.97457e-08
1.42203e-07
4.22851e-07
6.27694e-05
2.26409e-05
9.60695e-06
4.10319e-06
9.10764e-07
3.25064e-10
1.01514e-09
1.32161e-08
1.44562e-07
4.34518e-07
1.44813e-06
0.000375709
8.6612e-05
1.98304e-05
1.45636e-06
2.28515e-07
6.86199e-08
1.37049e-07
1.07111e-06
9.54827e-05
8.90648e-05
5.78262e-05
0.0636544
0.0133323
0.00193005
2.31262e-06
8.26859e-08
2.43201e-07
6.3782e-07
3.13204e-06
1.73793e-05
1.6258e-05
0.000322324
0.0010399
0.00100459
0.000196089
2.04814e-07
5.24573e-09
6.77322e-09
2.37307e-08
7.43082e-08
2.13326e-07
1.97581e-06
1.64381e-05
0.00124452
8.94005e-05
0.000232182
0.000154963
0.000125205
4.21396e-05
6.29776e-08
9.64919e-10
1.80096e-10
2.52406e-10
2.07143e-09
9.66078e-09
4.97636e-08
2.78649e-07
1.62426e-06
0.0154842
0.000117324
4.89843e-05
4.39993e-05
3.38442e-05
2.4343e-05
6.71593e-06
1.65889e-08
9.71224e-11
1.80151e-12
5.42384e-11
4.48702e-10
1.85588e-09
7.78414e-09
4.03578e-08
1.98819e-07
0.0104729
1.7704e-05
3.83256e-06
5.40486e-06
4.40219e-06
2.71778e-06
5.62847e-07
1.52058e-09
2.73328e-13
5.48843e-12
8.34341e-11
4.56592e-10
1.72778e-09
5.5071e-09
1.53495e-08
5.02115e-08
5.00487e-07
0.00414241
0.00038936
6.74835e-07
4.96276e-07
5.16851e-07
3.33963e-07
1.18997e-07
1.61772e-09
1.12774e-13
1.01902e-15
2.11706e-14
1.05905e-12
2.41883e-11
1.68605e-10
7.63047e-10
2.96627e-09
1.75752e-08
1.93574e-07
1.08441e-05
0.00238152
2.63831e-05
1.74445e-07
7.36352e-08
4.63209e-08
1.40641e-08
4.29299e-09
1.65244e-09
2.13624e-11
7.24847e-15
1e-15
1.66666e-15
8.55236e-14
3.33844e-12
4.40782e-11
3.01345e-10
3.11086e-09
6.27073e-08
1.75913e-06
0.00202856
2.7441e-06
9.42055e-08
6.25077e-08
5.08758e-08
2.9996e-08
3.45667e-08
2.09092e-08
1.55245e-09
1.65432e-12
1e-15
1e-15
1.51323e-15
1.14411e-13
4.16767e-12
4.17936e-11
3.52419e-10
5.40997e-09
2.2435e-07
3.56754e-05
0.000948446
2.10463e-06
4.46281e-07
3.68922e-07
2.54137e-07
2.81905e-07
2.26846e-07
1.22128e-07
2.43935e-08
2.19228e-10
2.94403e-14
1e-15
1e-15
1e-15
1e-15
3.99826e-15
9.56199e-13
4.36499e-11
5.61106e-09
8.1091e-05
0.000389564
2.89863e-06
1.48915e-06
2.03472e-06
1.74742e-06
1.47975e-06
9.22143e-07
4.65992e-07
1.36765e-07
8.47882e-09
1.54044e-11
1.05258e-14
1e-15
1e-15
1e-15
1e-15
2.83721e-15
3.51748e-13
3.42413e-10
0.000319129
0.000131285
1.20923e-05
2.3983e-06
4.02709e-06
9.09817e-06
4.90392e-06
2.66579e-06
1.26498e-06
4.31331e-07
7.41639e-08
2.16356e-09
3.16264e-12
4.2468e-15
1e-15
1e-15
1e-15
2.71949e-13
1.17605e-11
1.14484e-10
5.21953e-05
3.41241e-05
1.00359e-05
6.19381e-06
7.08032e-06
9.42398e-06
5.57907e-06
2.5594e-06
8.89156e-07
1.87407e-07
1.35822e-08
4.48777e-11
3.90264e-14
1e-15
1e-15
1e-15
5.54335e-14
5.25611e-10
3.34034e-08
7.17072e-05
2.6447e-05
1.48505e-05
1.10591e-05
9.92234e-06
8.30418e-06
5.19612e-06
2.44996e-06
7.31262e-07
3.33273e-08
2.22631e-11
1.58989e-13
6.9541e-12
6.48451e-14
2.38174e-15
2.36412e-14
2.55259e-12
6.13285e-09
1.0464e-06
0.000177817
2.10678e-05
1.33473e-05
9.00054e-06
7.25942e-06
5.03875e-06
2.76987e-06
8.98551e-07
3.23662e-08
5.94249e-11
1.07084e-12
2.99664e-11
2.26602e-10
1.36156e-11
1.93516e-13
2.65111e-13
9.27884e-10
2.52331e-08
4.19255e-05
1.00615e-05
6.26255e-06
3.6683e-06
2.21196e-06
1.09447e-06
3.65331e-07
3.18804e-08
1.21245e-10
5.88834e-11
2.98984e-10
1.4781e-09
4.68646e-10
1.73286e-11
1.11627e-09
2.47941e-08
8.26448e-07
0.000165846
1.74975e-05
5.61495e-06
2.67816e-06
1.62694e-06
9.42838e-07
4.89297e-07
1.67468e-07
1.8453e-08
2.57357e-09
2.07797e-09
8.05289e-09
5.21911e-09
6.06078e-09
3.32368e-08
4.10233e-07
0.000182071
1.68091e-05
5.15353e-06
2.28013e-06
1.02908e-06
8.27432e-07
3.07357e-07
5.10592e-08
1.11227e-08
6.30497e-09
3.14267e-08
8.71428e-08
1.25887e-07
4.94217e-07
4.9075e-05
1.81332e-05
7.81417e-06
3.32349e-06
7.68949e-07
2.98799e-08
6.44443e-09
3.97567e-08
2.79854e-07
7.08011e-07
2.09204e-06
0.000269543
6.26623e-05
1.50319e-05
1.60025e-06
2.29302e-07
8.3325e-08
3.56906e-07
2.26938e-06
4.11217e-05
0.000147611
0.000162217
0.0375786
0.00726184
0.00133709
9.31763e-05
7.02984e-08
2.02194e-07
7.2203e-07
5.28343e-06
3.48974e-05
4.72648e-06
2.99777e-05
0.000174516
0.000409135
0.000132723
1.3022e-06
8.01819e-09
5.29659e-09
2.52685e-08
1.03377e-07
3.30788e-07
2.56758e-06
1.82634e-05
0.000240463
1.82982e-05
3.57156e-05
5.18805e-05
6.21132e-05
3.13519e-05
2.63511e-07
2.15249e-09
2.62599e-10
6.5943e-10
3.30443e-09
1.54201e-08
6.54801e-08
3.1807e-07
3.81849e-06
0.00442713
2.72738e-05
5.67486e-06
8.26529e-06
1.19951e-05
1.24589e-05
5.24322e-06
5.06679e-08
2.80588e-10
1.52417e-12
2.77382e-11
3.27157e-10
1.68637e-09
8.71832e-09
5.85821e-08
3.89005e-07
0.00432306
2.77642e-06
7.55465e-07
1.28085e-06
1.69498e-06
1.3864e-06
4.62903e-07
3.24767e-09
1.96478e-12
7.25263e-12
7.82166e-11
4.09479e-10
1.68454e-09
6.16444e-09
2.06154e-08
9.11011e-08
7.49824e-07
0.0012848
0.000136279
8.63552e-08
1.03727e-07
1.33556e-07
1.19422e-07
4.49766e-08
1.44864e-10
2.75033e-14
1.08049e-15
4.11076e-14
1.63377e-12
2.63511e-11
1.68919e-10
8.11161e-10
3.36022e-09
1.76271e-08
1.21304e-07
3.46123e-06
0.000712434
1.01253e-05
1.7342e-08
1.47358e-08
1.16508e-08
5.25276e-09
3.39184e-09
1.49922e-09
8.3615e-12
7.13312e-15
1e-15
1.17683e-15
5.04874e-14
2.5768e-12
4.48064e-11
3.14856e-10
2.35056e-09
2.72649e-08
5.63887e-07
0.000830348
8.78248e-07
8.95039e-09
9.22504e-09
1.25818e-08
2.04799e-08
3.93378e-08
2.26628e-08
1.28216e-09
2.98617e-12
3.12867e-15
1e-15
1e-15
1.78501e-14
1.49014e-12
2.60785e-11
2.36814e-10
3.02173e-09
1.42798e-07
2.08179e-05
0.000474731
6.39545e-07
1.01614e-07
1.26577e-07
1.50647e-07
2.11446e-07
2.32474e-07
1.27465e-07
2.43681e-08
4.79632e-10
4.77357e-13
1.12069e-15
1e-15
1e-15
1e-15
1.26584e-15
2.99929e-13
2.23976e-11
4.09424e-09
9.84727e-05
0.000191503
8.56346e-07
5.11931e-07
8.19848e-07
1.01282e-06
1.12897e-06
8.61505e-07
4.38945e-07
1.19647e-07
9.38876e-09
7.90796e-11
8.23108e-14
1e-15
1e-15
1e-15
1e-15
1e-15
2.18692e-15
2.456e-11
0.000261667
5.83862e-05
5.7956e-06
8.49053e-07
1.63617e-06
4.01624e-06
3.71512e-06
2.10741e-06
1.02002e-06
3.31258e-07
5.4354e-08
2.49353e-09
1.65481e-11
1.74509e-14
1e-15
1e-15
1e-15
2.925e-15
1.2112e-12
8.45965e-12
2.69494e-05
1.5093e-05
4.05541e-06
2.47631e-06
2.87465e-06
3.39463e-06
3.16911e-06
1.62374e-06
5.44737e-07
9.73405e-08
1.50305e-09
6.3247e-13
8.32924e-15
1e-15
1e-15
1e-15
1e-15
1.49801e-10
1.67268e-08
5.24882e-05
1.41077e-05
7.2223e-06
5.06283e-06
4.39974e-06
4.07477e-06
2.79318e-06
1.29886e-06
2.78257e-07
6.03965e-09
5.13769e-12
9.95345e-13
4.45524e-12
2.79475e-14
1e-15
4.03312e-15
6.61059e-13
2.95497e-09
8.71075e-07
0.000149912
1.66479e-05
8.01818e-06
4.98212e-06
4.00488e-06
2.87903e-06
1.55796e-06
4.47134e-07
9.36896e-09
2.70568e-12
1.27742e-12
3.69069e-11
1.99109e-10
4.40569e-12
3.82079e-14
6.20512e-14
3.45213e-10
1.25411e-08
3.96077e-05
8.88554e-06
4.4264e-06
2.46119e-06
1.49965e-06
7.84627e-07
3.02741e-07
3.91634e-08
3.0308e-10
1.09052e-10
3.90138e-10
1.63723e-09
2.62113e-10
4.7563e-12
3.31288e-10
1.14803e-08
7.01024e-07
0.00015582
1.73539e-05
5.49719e-06
2.55097e-06
1.59068e-06
9.564e-07
5.05811e-07
1.7619e-07
2.05944e-08
3.056e-09
2.70496e-09
9.86684e-09
4.54751e-09
3.56396e-09
1.74366e-08
2.90091e-07
0.000171894
1.6424e-05
5.19178e-06
2.31251e-06
1.04246e-06
7.62807e-07
2.54225e-07
4.34725e-08
1.43493e-08
9.90748e-09
4.16159e-08
8.60378e-08
9.15957e-08
4.67918e-07
4.50628e-05
1.6586e-05
7.16488e-06
2.99833e-06
7.68491e-07
9.95314e-08
2.61995e-08
9.13765e-08
4.30902e-07
9.00957e-07
2.44283e-06
0.000210128
5.13883e-05
1.33077e-05
2.20915e-06
2.54391e-07
1.72226e-07
8.2467e-07
4.02247e-06
3.72987e-05
7.99589e-05
0.000132331
0.0219093
0.00472845
0.000856407
4.95814e-05
1.20382e-07
8.50459e-08
4.31033e-07
5.50911e-06
6.3522e-05
1.61055e-06
1.75445e-06
5.52218e-05
0.000178999
7.9986e-05
1.49169e-06
1.5405e-08
2.03712e-09
1.24367e-08
8.09161e-08
3.93374e-07
4.56102e-06
3.50322e-05
4.71844e-05
4.2618e-06
8.72806e-06
2.01305e-05
2.84377e-05
1.96712e-05
4.76265e-07
3.98221e-09
1.434e-10
8.05993e-10
3.82442e-09
2.368e-08
1.21122e-07
6.69444e-07
9.53063e-06
0.0012001
6.43899e-06
1.6262e-06
3.76832e-06
5.68393e-06
6.10482e-06
3.39235e-06
8.73157e-08
4.18284e-10
6.35944e-13
2.03394e-11
2.64112e-10
1.33579e-09
8.8556e-09
6.56322e-08
5.3189e-07
0.000776265
2.57762e-07
3.79236e-07
6.71381e-07
8.80047e-07
6.89124e-07
2.66283e-07
2.83144e-09
1.32689e-13
3.71038e-12
4.51327e-11
2.5226e-10
1.13804e-09
4.78977e-09
1.90421e-08
1.16735e-07
1.43681e-06
0.000307149
3.93605e-05
2.47306e-08
4.70184e-08
6.67679e-08
5.95617e-08
1.46167e-08
1.46411e-12
8.92181e-15
1.44026e-15
5.20995e-14
1.76312e-12
2.12124e-11
1.29711e-10
6.84316e-10
3.33756e-09
2.43509e-08
2.41926e-07
8.28485e-06
0.000179634
3.3452e-06
4.2685e-09
6.17411e-09
5.74435e-09
2.34602e-09
1.77239e-09
3.29581e-10
1.41049e-12
1.07039e-15
1e-15
2.37986e-15
1.43134e-13
4.93137e-12
5.92874e-11
4.12086e-10
3.792e-09
4.45487e-08
8.15981e-07
0.000304329
2.26067e-07
1.93597e-09
3.25232e-09
5.98629e-09
1.27696e-08
2.76537e-08
1.23245e-08
3.17849e-10
1.19661e-13
4.12506e-15
1e-15
1e-15
5.97285e-15
7.41632e-13
3.05987e-11
3.2244e-10
3.17839e-09
1.079e-07
5.39889e-05
0.000197282
1.49765e-07
2.77758e-08
4.88682e-08
7.86493e-08
1.24822e-07
1.71324e-07
8.13131e-08
1.06111e-08
5.03403e-11
1.68992e-13
1e-15
1e-15
1e-15
1e-15
1.16595e-15
2.52727e-13
2.6581e-11
3.46498e-09
0.000119975
8.12069e-05
2.52353e-07
1.72156e-07
3.36934e-07
5.37407e-07
6.9915e-07
6.13611e-07
2.74898e-07
5.97699e-08
2.98056e-09
2.18625e-11
1.5041e-14
1e-15
1e-15
1e-15
1e-15
1e-15
1e-15
2.63e-12
0.000251345
2.41507e-05
3.39255e-06
2.87231e-07
5.52129e-07
1.45772e-06
2.51957e-06
1.28419e-06
5.74066e-07
1.6452e-07
2.27186e-08
9.60043e-10
4.31102e-12
6.48043e-15
1e-15
1e-15
1e-15
1.51494e-15
7.31572e-15
4.48849e-12
1.54227e-05
7.18286e-06
1.91784e-06
1.06715e-06
1.18827e-06
1.35253e-06
1.33505e-06
7.36457e-07
2.35623e-07
3.3749e-08
4.99022e-10
7.60588e-13
1.59493e-14
1.00287e-15
1e-15
1e-15
1e-15
2.2966e-11
6.93166e-09
4.24708e-05
8.1854e-06
3.82047e-06
2.54607e-06
2.09992e-06
1.90539e-06
1.34031e-06
6.20987e-07
1.30402e-07
1.41964e-09
4.19881e-13
2.54179e-12
3.69042e-12
3.03074e-14
1e-15
1.19896e-15
1.07452e-14
1.218e-09
5.05623e-07
0.000132578
1.37445e-05
5.22112e-06
2.94176e-06
2.26887e-06
1.62406e-06
8.83975e-07
2.70013e-07
1.35029e-08
2.44272e-11
2.17434e-12
8.50775e-11
2.09684e-10
2.27231e-12
1.32415e-14
6.72841e-15
7.97545e-11
5.1923e-09
3.74132e-05
7.96619e-06
3.36574e-06
1.80672e-06
1.12189e-06
6.18671e-07
2.57317e-07
3.62197e-08
3.4994e-10
1.26533e-10
6.19259e-10
1.99481e-09
1.42231e-10
1.01574e-12
5.63448e-11
4.78216e-09
5.42778e-07
0.000145986
1.71557e-05
5.45159e-06
2.57509e-06
1.65048e-06
1.00401e-06
5.20457e-07
1.7165e-07
1.78503e-08
3.98961e-09
4.29926e-09
1.31627e-08
3.44683e-09
1.45401e-09
6.55815e-09
1.68108e-07
0.000166552
1.68873e-05
5.57431e-06
2.51723e-06
1.10863e-06
6.94399e-07
2.25676e-07
4.90981e-08
2.26492e-08
1.4972e-08
5.71639e-08
6.54342e-08
6.22338e-08
3.71193e-07
4.45621e-05
1.62089e-05
6.96595e-06
2.80077e-06
8.12465e-07
1.58628e-07
5.92454e-08
1.61919e-07
6.1423e-07
8.81786e-07
2.6423e-06
0.000174758
4.64301e-05
1.22226e-05
1.87734e-06
2.86773e-07
4.26548e-07
1.49138e-06
6.11436e-06
8.04525e-05
7.18452e-05
5.87622e-05
0.0132915
0.00280058
0.000550031
2.46915e-05
3.37233e-07
2.54288e-08
1.28246e-07
2.55324e-06
4.76214e-05
2.38212e-05
2.76079e-06
2.01195e-05
8.86947e-05
5.35703e-05
2.36323e-06
2.71533e-08
8.8335e-10
2.65723e-09
2.94113e-08
2.18042e-07
4.56922e-06
6.14484e-05
6.70075e-06
1.18075e-06
3.14012e-06
1.18254e-05
1.76508e-05
1.41735e-05
6.91348e-07
5.53872e-09
8.80851e-11
3.6123e-10
2.11541e-09
1.68251e-08
1.33135e-07
1.09084e-06
1.74784e-05
0.000211346
1.04857e-06
9.16705e-07
2.60232e-06
4.09265e-06
4.28681e-06
2.55171e-06
9.68112e-08
3.04167e-10
4.21349e-13
1.39346e-11
1.98343e-10
9.85004e-10
8.29564e-09
6.68988e-08
5.2535e-07
0.000290483
7.43967e-08
3.07199e-07
5.75764e-07
7.38983e-07
5.06223e-07
1.81211e-07
7.61209e-10
1.95128e-14
8.8298e-13
1.81921e-11
1.24734e-10
6.27419e-10
2.96424e-09
1.33542e-08
9.56361e-08
1.80605e-06
5.3831e-05
1.05762e-05
1.2277e-08
3.28596e-08
5.7627e-08
5.20461e-08
9.71799e-09
3.1403e-13
1e-15
1e-15
7.27325e-15
4.15547e-13
8.50098e-12
6.45336e-11
3.81739e-10
2.13673e-09
1.99174e-08
2.75554e-07
1.39009e-05
4.31101e-05
7.80082e-07
1.53214e-09
3.47067e-09
4.47287e-09
1.91948e-09
4.39339e-10
1.89367e-11
2.67862e-14
1e-15
1e-15
2.30591e-15
1.34372e-13
4.33661e-12
4.85164e-11
3.57001e-10
4.06282e-09
5.75372e-08
1.29606e-06
0.000106389
3.91852e-08
4.21031e-10
9.02884e-10
1.86909e-09
4.54581e-09
1.25948e-08
2.70939e-09
1.45569e-11
1.53098e-14
1e-15
1e-15
1e-15
3.30692e-14
2.34609e-12
5.51302e-11
5.15729e-10
5.0885e-09
1.6592e-07
5.71697e-05
7.29443e-05
2.48777e-08
7.23394e-09
1.69252e-08
3.40794e-08
6.18023e-08
9.43838e-08
3.37363e-08
1.68107e-09
4.97648e-12
6.76439e-15
1e-15
1e-15
1e-15
1e-15
4.41995e-15
1.1833e-12
8.03946e-11
7.67528e-09
0.000100397
3.0437e-05
1.12494e-07
5.22897e-08
1.28992e-07
2.57146e-07
3.91101e-07
3.42556e-07
1.27745e-07
1.80683e-08
4.57508e-10
1.16366e-12
1.95049e-15
1e-15
1e-15
1e-15
1e-15
1e-15
1e-15
7.15084e-12
0.000215419
9.34973e-06
1.81748e-06
1.08324e-07
1.72036e-07
4.51085e-07
9.58413e-07
6.38754e-07
2.61353e-07
5.8678e-08
5.006e-09
1.06679e-10
1.8657e-13
1.11379e-15
1e-15
1e-15
1e-15
1e-15
2.74251e-15
3.25346e-12
1.01264e-05
3.53082e-06
1.01921e-06
5.21386e-07
4.94819e-07
6.35525e-07
5.73343e-07
3.10634e-07
7.81882e-08
3.59913e-09
7.56439e-12
5.28438e-14
1.40387e-14
1e-15
1e-15
1e-15
1e-15
7.49188e-12
2.18231e-09
3.67591e-05
5.40811e-06
2.263e-06
1.43855e-06
1.11061e-06
9.79354e-07
6.76972e-07
3.00906e-07
5.39892e-08
8.04637e-10
2.1529e-12
1.53154e-11
2.25257e-12
1.82957e-14
1e-15
1e-15
5.04868e-15
4.93174e-10
2.16244e-07
0.00012347
1.20252e-05
3.84889e-06
1.95138e-06
1.41535e-06
9.90772e-07
5.43471e-07
1.66334e-07
7.63194e-09
4.34951e-12
3.67693e-12
1.77006e-10
1.47261e-10
8.41317e-13
4.44175e-15
1.22583e-15
2.17519e-11
2.01316e-09
3.66209e-05
7.47604e-06
2.846e-06
1.50333e-06
9.45568e-07
5.26361e-07
1.99186e-07
1.29834e-08
4.18833e-11
2.17699e-10
1.14095e-09
2.1243e-09
4.89686e-11
2.06076e-13
5.12973e-12
1.83754e-09
3.89097e-07
0.000147463
1.77534e-05
5.59833e-06
2.67139e-06
1.7058e-06
9.91493e-07
4.38618e-07
8.00504e-08
5.78359e-09
3.70714e-09
6.55334e-09
1.5801e-08
1.81746e-09
3.47735e-10
1.49117e-09
8.00735e-08
0.000165286
1.83105e-05
6.21536e-06
2.74782e-06
1.08737e-06
5.50349e-07
1.7238e-07
4.37517e-08
2.82595e-08
1.84256e-08
8.26605e-08
3.13886e-08
3.16542e-08
1.94293e-07
4.59688e-05
1.59766e-05
6.60418e-06
2.44971e-06
7.04488e-07
1.62961e-07
9.4997e-08
2.2041e-07
8.85372e-07
5.87074e-07
2.86365e-06
0.000155048
4.44708e-05
1.08445e-05
1.44967e-06
4.78369e-07
8.35227e-07
2.17885e-06
8.1599e-06
0.000241192
8.6146e-05
5.96961e-05
0.00888989
0.00157357
0.000330726
3.5811e-05
6.29761e-07
2.79796e-08
3.49113e-08
7.76564e-07
2.12023e-05
0.000101544
9.71417e-06
1.33793e-05
4.5198e-05
3.5472e-05
2.85139e-06
3.20628e-08
9.73771e-10
5.9192e-10
6.76954e-09
8.56283e-08
2.37175e-06
5.27604e-05
1.60982e-06
2.64477e-07
7.73669e-07
7.21617e-06
1.13098e-05
9.86469e-06
6.79272e-07
4.81284e-09
7.79321e-11
6.44088e-11
5.32466e-10
5.79139e-09
7.50944e-08
9.94106e-07
2.46052e-05
2.03389e-05
1.72249e-07
5.03263e-07
1.64399e-06
3.01016e-06
3.19727e-06
1.91287e-06
7.29791e-08
6.60799e-11
4.89194e-14