/*--------------------------------*- C++ -*----------------------------------*\
| =========                 |                                                 |
| \\      /  F ield         | OpenFOAM: The Open Source CFD Toolbox           |
|  \\    /   O peration     | Version:  2406                                  |
|   \\  /    A nd           | Website:  www.openfoam.com                      |
|    \\/     M anipulation  |                                                 |
\*---------------------------------------------------------------------------*/
FoamFile
{
    version     2.0;
    format      ascii;
    arch        "LSB;label=32;scalar=64";
    class       volScalarField;
    location    "50";
    object      nut;
}
// * * * * * * * * * * * * * * * * * * * * * * * * * * * * * * * * * * * * * //

dimensions      [0 2 -1 0 0 0 0];

internalField   nonuniform List<scalar> 
238188
(
0.00544349
0.00122442
0.00159289
0.00730962
0.00117883
0.00145011
0.0013305
0.00256719
0.0148936
0.00113825
0.00157695
0.00140837
0.0020713
0.00228321
0.00446987
0.00134349
0.00205552
0.00324091
0.00414076
0.0402098
0.00718328
0.0162096
0.00792881
0.00402572
0.00565132
0.00598437
0.00832655
0.00391785
0.00326296
0.00398317
0.00456103
0.00587676
0.00328089
0.00285119
0.00340102
0.0138519
0.00973687
0.000304035
8.58256e-05
0.00012144
0.00230154
0.00110087
0.000181277
5.99832e-06
2.09594e-06
6.75667e-06
2.4078e-05
4.91906e-05
7.36845e-05
0.000488344
0.00133365
0.000621896
7.67012e-05
1.54782e-06
1.01725e-08
2.58171e-09
1.32902e-08
1.0076e-07
4.28241e-07
4.40557e-06
2.16204e-05
4.40138e-05
0.000353735
0.00110005
0.00481376
0.00118311
0.000121975
3.09029e-07
3.84736e-12
2.93463e-11
5.83144e-15
2.94914e-12
2.2538e-10
1.11401e-08
4.73164e-07
7.73086e-06
2.23915e-05
0.00118743
0.000533131
0.0346025
0.0169662
0.0105168
0.00967783
0.00970197
5.08383e-05
0.000475704
6.60648e-17
2.29599e-17
4.40089e-16
2.02923e-11
1.91271e-09
1.43209e-07
7.97015e-06
0.000593963
0.00870293
0.00916217
0.00658144
0.007325
0.00837931
0.00710594
0.0429845
1.27208
3.81474e-09
3.15959e-16
1.56157e-17
1.36178e-16
1.14369e-12
4.83816e-10
1.45263e-07
2.17957e-05
0.000873294
0.000620654
0.00578654
0.00450764
0.00638535
0.00832242
0.00990952
0.0109104
0.0556607
1.57885
2.65576e-11
1.04304e-12
1.49735e-14
8.1491e-18
1.82674e-16
1.99588e-12
5.11376e-10
1.34959e-06
7.19296e-05
0.000722309
0.00128055
0.00273511
0.00435576
0.00469931
0.00711072
0.00941011
0.011516
4.78337e-07
1.10197e-10
4.94214e-11
8.75932e-12
1.94706e-13
1.03157e-17
5.39721e-18
5.81961e-18
5.29616e-13
5.87942e-10
2.85755e-05
0.00163608
0.00644845
0.00130231
0.000634188
0.000751763
0.00123772
0.00217732
0.00289415
5.54903e-12
2.09915e-12
9.25414e-13
1.98686e-13
7.61188e-15
1.11725e-17
5.39044e-18
5.8105e-18
4.982e-13
3.29037e-10
6.89767e-06
0.000595103
0.000909966
0.00135902
0.00118563
0.00087565
3.53924e-05
1.46467e-06
1.62141e-07
3.73471e-09
2.62388e-14
9.06449e-17
3.34403e-17
1.28049e-17
6.10614e-18
5.16351e-18
5.46698e-18
5.93495e-18
6.16255e-18
4.17799e-13
9.91307e-06
0.000256773
0.000475012
0.000722564
0.00188954
0.00384488
0.000126827
2.26688e-05
2.42311e-07
3.29298e-09
2.10628e-12
3.42267e-17
1.28992e-17
4.95029e-18
5.15144e-18
5.48517e-18
5.77932e-18
6.05797e-18
6.24622e-18
7.54703e-16
1.14432e-05
0.000912521
0.000184729
0.000411969
0.000711632
0.00175213
9.77949e-05
6.10523e-05
8.07109e-07
3.31664e-09
3.21318e-12
1.32535e-17
5.2753e-18
4.96345e-18
5.33102e-18
5.64446e-18
5.92943e-18
6.17537e-18
1.44085e-17
2.81408e-06
4.89818e-06
6.79668e-05
0.000145378
0.00019213
0.000104981
3.52023e-05
7.34794e-05
2.5264e-06
4.63425e-10
1.2702e-16
6.06538e-18
4.83934e-18
5.20776e-18
5.51715e-18
5.79902e-18
6.05636e-18
6.28122e-18
1.17145e-09
8.61223e-06
1.44413e-05
0.000338733
3.30694e-05
4.55113e-05
1.67778e-05
2.68271e-05
3.2103e-05
4.63274e-06
2.56196e-10
2.79474e-15
4.80808e-18
5.17699e-18
5.45893e-18
5.71712e-18
5.96349e-18
6.19606e-18
2.92951e-19
5.57341e-06
8.00394e-06
4.58472e-05
0.000857
0.000139616
2.4001e-05
1.1546e-05
1.08745e-05
1.2517e-05
3.52084e-06
9.25066e-10
6.90608e-13
6.20053e-18
5.50725e-18
1.83746e-17
6.25739e-18
6.12854e-18
3.82781e-16
3.04157e-10
1.82816e-05
1.72243e-05
0.000533683
0.000139552
4.03071e-05
1.83663e-05
7.70431e-06
1.60161e-06
8.89671e-10
4.10697e-14
8.31814e-15
2.49926e-16
3.82716e-14
1.67619e-14
1.26777e-13
6.37573e-08
9.18725e-06
1.35272e-05
4.77715e-05
0.000491334
0.000165591
4.24568e-05
1.17222e-05
2.43278e-06
1.60419e-07
3.52863e-09
2.0618e-08
4.16541e-16
1.21557e-15
1.79878e-10
3.42133e-11
9.41889e-08
4.31736e-06
9.67354e-06
3.27524e-05
0.000142448
3.72471e-05
1.20697e-05
4.06161e-06
1.60298e-06
4.32164e-07
3.08747e-07
6.8532e-07
4.72955e-08
2.90931e-07
5.87377e-07
9.25429e-07
6.91775e-06
2.89e-05
9.66119e-05
3.88208e-05
1.6721e-05
8.05915e-06
3.39838e-06
2.39608e-06
1.47744e-06
2.93353e-06
5.45106e-06
8.67795e-06
2.29232e-05
0.000144197
5.90021e-05
2.90162e-05
1.28915e-05
7.26213e-06
1.79563e-05
2.1514e-05
3.18945e-05
1.13032e-05
6.07109e-07
9.78149e-08
0.000646531
0.000127115
2.41104e-06
1.43052e-08
2.72748e-09
4.65786e-09
5.26542e-09
2.72114e-08
1.29342e-07
0.000971577
0.000991517
0.000338056
3.04297e-06
1.6873e-07
3.03421e-10
4.93137e-15
1.62396e-13
2.62345e-12
9.95585e-11
5.42005e-10
4.91247e-09
1.63891e-08
0.00318495
0.00359374
0.00105381
0.000341464
1.34829e-07
6.51297e-09
4.79747e-12
5.99187e-17
2.38122e-16
4.11789e-14
1.70572e-12
2.17754e-11
2.33978e-10
1.59631e-09
2.14205e-08
0.00415754
0.00596607
0.00638185
0.00505114
0.00247536
3.53449e-06
1.02804e-09
1.65253e-12
6.70115e-15
3.0315e-17
6.8724e-15
1.31273e-13
4.42814e-11
7.43757e-10
1.83575e-09
8.46093e-09
0.00250626
0.00331622
0.00310024
0.00204736
0.00063688
2.72286e-05
1.40922e-08
1.45987e-06
3.84624e-12
1.92529e-15
9.62048e-14
1.69802e-11
3.43815e-10
1.43266e-09
3.47798e-09
7.12446e-09
8.07193e-08
0.0013966
0.00233329
0.00356706
0.00517495
0.00631649
0.00527627
0.00169322
2.26287e-06
6.64812e-13
3.16687e-09
5.25728e-18
5.17208e-16
1.94323e-13
9.91614e-12
1.62963e-10
7.42774e-10
3.11593e-09
3.76978e-08
3.61408e-07
0.00139294
0.00208802
0.00297316
0.00348955
0.00434096
0.00568938
0.00745784
0.000588251
1.47651e-13
4.87232e-18
5.28057e-18
5.55032e-18
5.73609e-18
1.98781e-16
2.34105e-13
2.6464e-11
4.87693e-10
8.74561e-09
2.85727e-07
0.000791665
0.000863958
0.000245307
0.000211595
0.00020564
0.000275571
0.000464958
7.1179e-08
4.54937e-18
4.98556e-18
5.34817e-18
5.59284e-18
5.76794e-18
5.91313e-18
8.26361e-17
2.48847e-13
2.98227e-11
1.65132e-09
1.20541e-07
8.84967e-05
0.000343281
0.000241954
1.53802e-05
5.34065e-06
5.7197e-07
1.10245e-07
4.49925e-09
3.26823e-20
4.80831e-18
5.11714e-18
5.42023e-18
5.64721e-18
5.82483e-18
5.96761e-18
6.09244e-18
6.23146e-18
1.46649e-17
6.49314e-12
1.15117e-08
9.49137e-05
0.000153418
0.000126197
3.10389e-05
5.33747e-05
2.55988e-06
7.04922e-07
3.50273e-09
3.81308e-13
4.97548e-18
5.25061e-18
5.50633e-18
5.72156e-18
5.89331e-18
6.03542e-18
6.16179e-18
6.28379e-18
6.41122e-18
5.50476e-17
2.88131e-14
6.33486e-05
4.26855e-05
7.91268e-05
4.95828e-05
3.26754e-05
6.32843e-06
2.22703e-06
3.0151e-08
7.52659e-11
5.11547e-18
1.18422e-17
5.62764e-18
5.82286e-18
5.97931e-18
6.11683e-18
6.25111e-18
6.37563e-18
6.48264e-18
1.53691e-13
4.16015e-12
1.23491e-05
2.96743e-05
3.47894e-05
2.71119e-05
1.14859e-05
2.57324e-06
1.36057e-07
1.31263e-09
1.11976e-14
1.39552e-14
1.91341e-17
5.95783e-18
6.08705e-18
6.20313e-18
6.3206e-18
6.44516e-18
3.29733e-14
1.01012e-11
2.26785e-07
8.67681e-06
9.22258e-06
1.1612e-05
9.28873e-06
3.80286e-06
9.01551e-07
2.26128e-07
7.15873e-09
6.57015e-12
1.1674e-17
5.44869e-18
6.09594e-18
8.0724e-18
6.29834e-18
6.39701e-18
1.60458e-14
9.2865e-10
7.72858e-09
3.52149e-06
1.35522e-05
3.34482e-06
3.16557e-06
2.11461e-06
6.72716e-07
2.10693e-07
5.54017e-08
3.64613e-09
2.85346e-11
7.9318e-20
3.40223e-18
4.0324e-18
6.71861e-16
6.33848e-18
8.66263e-14
3.63239e-10
9.41245e-09
5.61309e-08
3.27866e-06
1.14152e-06
5.85727e-07
2.31897e-07
8.82206e-08
2.39324e-08
1.3702e-09
1.85225e-17
8.99858e-19
6.10458e-18
5.246e-14
1.22464e-12
4.4426e-15
1.03525e-09
9.84994e-09
6.63598e-08
1.42848e-06
1.05078e-05
1.87211e-06
7.40287e-07
3.40938e-07
1.8872e-07
1.01636e-07
1.53739e-08
6.55451e-13
2.50796e-16
3.41185e-15
5.54577e-11
1.91693e-09
2.21638e-09
2.31588e-08
8.47256e-08
8.51299e-07
2.73945e-05
4.09035e-06
2.14462e-06
1.14849e-06
7.22799e-07
4.00381e-07
2.36076e-09
7.58691e-20
4.73698e-12
8.70343e-10
2.0993e-08
5.28695e-08
2.6589e-07
1.3804e-06
2.29133e-05
1.21984e-05
6.85516e-06
3.83912e-06
1.12476e-06
1.7593e-10
1.31874e-09
9.7989e-09
1.50419e-07
4.68286e-07
2.47738e-06
0.000131994
4.45745e-05
1.82082e-05
6.34982e-06
2.58981e-06
9.66256e-07
3.16993e-07
1.55901e-06
9.00664e-06
6.24971e-06
3.72355e-06
0.000142681
6.5659e-06
4.46761e-07
1.82496e-08
7.78463e-09
1.58871e-08
2.07605e-08
1.25929e-08
1.19769e-08
5.71124e-05
0.000669337
4.58216e-05
2.99845e-07
1.51386e-07
1.28258e-10
3.97395e-10
1.78702e-09
4.6046e-09
1.27994e-08
2.11738e-08
2.01923e-08
3.0526e-07
0.00142048
0.000124128
0.000241888
2.12517e-05
1.5455e-07
1.24639e-07
2.88132e-10
3.02242e-12
2.72682e-11
5.43848e-10
2.59105e-09
7.38655e-09
2.65053e-08
5.63794e-08
4.13652e-07
0.0025585
0.000964951
0.000372489
0.000156063
1.47511e-05
2.69452e-07
5.02934e-08
2.005e-10
8.61996e-15
5.71552e-13
1.06654e-10
9.77964e-10
3.82918e-09
1.34917e-08
6.36779e-08
2.02651e-07
0.00143984
8.83864e-05
4.79262e-05
2.94078e-05
1.99952e-06
7.87392e-08
7.19081e-09
1.69153e-11
1.35879e-13
1.88923e-11
1.94167e-10
8.93679e-10
3.1112e-09
1.00991e-08
3.17995e-08
1.0195e-07
5.61556e-07
0.000960187
0.00137198
0.000414405
0.000254602
0.000106683
1.96589e-07
4.3912e-14
3.00037e-12
5.76737e-18
3.38244e-16
1.46316e-13
4.49388e-12
5.53071e-11
2.81309e-10
1.15769e-09
4.33868e-09
2.04803e-08
1.35279e-07
2.42236e-06
0.000722383
0.000683703
7.77795e-05
3.7877e-05
4.00107e-05
7.62223e-05
8.66919e-05
4.17195e-10
9.65561e-17
5.91609e-18
6.04672e-18
4.79778e-17
7.35395e-14
2.65357e-12
4.53011e-11
3.03412e-10
2.12185e-09
2.39245e-08
2.51597e-07
0.000399897
3.03141e-05
1.68236e-05
4.4381e-06
2.17792e-06
1.49888e-06
5.85662e-08
5.56259e-13
1.83983e-15
5.76293e-18
6.06929e-18
6.1833e-18
1.08358e-17
2.23891e-14
2.11581e-12
4.84637e-11
3.53995e-10
2.633e-09
5.66215e-08
4.16114e-05
0.000173148
1.43341e-05
4.46927e-06
7.31216e-07
1.34101e-07
2.76733e-08
6.34761e-09
4.70431e-10
6.41521e-13
3.82943e-16
5.71817e-18
6.22487e-18
6.31355e-18
6.38781e-18
6.45144e-18
1.65792e-16
7.62289e-13
4.73318e-11
4.52191e-09
3.0007e-05
8.23944e-05
1.45787e-05
2.99053e-06
1.658e-06
8.94737e-07
2.35551e-07
4.25103e-08
5.99469e-09
8.51539e-11
4.96076e-14
5.279e-18
6.23557e-18
6.36156e-18
6.42672e-18
6.48469e-18
6.53983e-18
1.26435e-15
9.26085e-13
1.08432e-09
0.000102314
3.06348e-05
2.15982e-05
4.41097e-06
3.54879e-06
3.42419e-06
7.91886e-07
1.77994e-07
3.09572e-08
1.43022e-09
1.04767e-11
5.93726e-15
2.9556e-17
1.6309e-17
6.47715e-18
6.52916e-18
2.66051e-17
8.1993e-14
1.30264e-13
1.92248e-14
9.42073e-06
1.71168e-05
9.40698e-06
7.03752e-06
5.12389e-06
2.01388e-06
5.54074e-07
1.06222e-07
9.03308e-09
3.93066e-10
2.43155e-12
2.58013e-15
3.018e-15
1.13133e-17
6.56771e-18
6.58411e-18
3.1325e-15
7.87064e-10
1.06564e-07
5.74324e-06
5.81107e-06
6.15941e-06
5.02224e-06
3.11293e-06
1.55333e-06
6.16602e-07
1.68943e-07
2.08162e-08
5.96549e-10
1.09816e-14
4.13152e-18
3.78889e-13
1.94549e-15
6.56725e-18
2.19655e-16
2.40175e-16
1.06913e-08
1.08355e-06
1.30114e-05
2.09224e-06
3.13926e-06
2.49332e-06
1.67082e-06
8.98766e-07
3.68359e-07
6.60653e-08
2.06687e-10
4.49927e-16
4.34972e-20
1.09274e-14
4.97734e-11
1.72073e-13
8.72809e-16
1.81026e-15
6.71002e-10
4.23101e-08
3.71473e-06
1.10572e-06
1.17318e-06
6.90594e-07
3.73022e-07
1.53184e-07
4.17577e-08
3.91749e-09
9.68492e-13
3.24319e-14
1.35737e-11
9.06068e-10
2.48343e-10
1.21517e-13
8.11955e-10
5.55979e-08
7.91566e-07
1.6035e-05
2.40293e-06
8.53916e-07
5.21335e-07
3.43239e-07
2.08117e-07
1.28085e-07
4.33601e-08
3.13907e-09
9.57528e-11
9.10038e-11
5.18719e-09
3.58086e-09
8.94117e-09
4.07225e-08
4.35906e-07
2.95195e-05
4.22257e-06
1.73866e-06
8.87324e-07
4.90185e-07
5.23847e-07
1.79142e-07
1.32931e-09
7.94722e-12
4.87548e-12
1.19803e-08
6.6324e-08
2.03057e-07
4.38057e-07
1.93074e-05
9.51e-06
5.10401e-06
2.73506e-06
5.1215e-07
4.97619e-12
6.88848e-11
5.60002e-09
1.05843e-07
3.26844e-07
1.48856e-06
0.000110758
3.79858e-05
1.23606e-05
9.35161e-07
1.01059e-07
2.56782e-08
7.12146e-08
6.92646e-07
2.07303e-05
1.33512e-05
9.03201e-06
0.000178232
8.4562e-06
5.14943e-06
3.10287e-08
5.64711e-08
1.66125e-07
3.52094e-07
1.46034e-06
5.69461e-06
3.85972e-06
1.77608e-05
0.000155654
4.33148e-05
3.64819e-06
6.41751e-10
2.39999e-09
4.65163e-09
1.98357e-08
6.34476e-08
1.90203e-07
1.36382e-06
6.66032e-06
0.000284903
2.96741e-05
7.91946e-05
2.08963e-05
8.68027e-06
1.35945e-06
2.05666e-09
2.08911e-10
1.2849e-10
6.69391e-10
2.72094e-09
1.40486e-08
6.20037e-08
3.25747e-07
2.69098e-06
0.00118868
4.55158e-05
4.15963e-05
2.48547e-05
5.29643e-06
2.13485e-06
3.24224e-07
1.17797e-09
2.07128e-12
5.1474e-12
1.34945e-10
8.0034e-10
2.93215e-09
1.40377e-08
7.97577e-08
5.8654e-07
0.000752726
1.24327e-05
3.77202e-06
3.03613e-06
8.30265e-07
3.15311e-07
3.67402e-08
1.49754e-10
2.03144e-13
1.54808e-11
1.43257e-10
6.88242e-10
2.51745e-09
8.53366e-09
2.68002e-08
1.61554e-07
1.54503e-06
0.000433055
4.63164e-05
7.90183e-07
5.56108e-07
3.46128e-07
8.79486e-08
1.97896e-08
3.93278e-10
2.69705e-17
2.33078e-16
1.40251e-13
3.71627e-12
4.40925e-11
2.50293e-10
1.13623e-09
4.70329e-09
3.38632e-08
2.88615e-07
6.37344e-06
0.000301209
5.3051e-06
2.70494e-07
9.953e-08
2.86742e-08
3.60639e-09
1.28957e-07
5.72729e-11
1.32601e-16
5.6196e-18
6.04534e-18
7.56063e-17
1.28689e-13
4.12732e-12
5.41694e-11
3.98156e-10
3.88161e-09
6.20806e-08
8.84533e-07
0.00019905
8.91135e-07
1.44113e-07
1.01192e-07
4.57054e-08
1.82779e-08
1.35649e-09
1.12018e-09
3.5366e-13
4.18574e-16
5.09588e-18
6.17858e-18
2.58053e-17
9.07625e-14
4.6289e-12
6.23904e-11
4.72187e-10
5.12487e-09
1.20679e-07
1.05362e-05
9.00192e-05
7.67099e-07
3.3472e-07
1.45402e-07
4.60025e-08
4.15015e-08
2.39418e-08
8.86009e-09
2.64008e-10
8.8082e-14
2.25285e-19
5.98859e-18
6.31078e-18
6.36832e-18
6.4215e-18
5.74278e-16
1.58603e-12
6.00647e-11
5.67051e-09
1.17793e-05
4.34054e-05
1.19729e-06
5.76656e-07
6.24151e-07
4.70381e-07
2.62961e-07
1.13227e-07
4.30402e-08
4.5725e-09
1.88311e-11
3.24932e-18
1.43509e-18
6.32314e-18
6.41839e-18
6.46547e-18
6.51517e-18
1.21858e-15
2.08145e-12
1.80855e-09
5.68713e-05
1.76185e-05
3.6528e-06
9.29886e-07
1.31699e-06
2.4295e-06
8.79041e-07
3.78389e-07
1.46337e-07
2.93413e-08
1.57651e-09
1.76316e-13
1.59259e-16
2.26634e-17
6.46762e-18
6.51683e-18
3.89852e-17
1.90709e-13
6.08418e-12
1.22771e-11
7.72773e-06
7.22228e-06
3.14291e-06
2.30439e-06
3.03663e-06
2.04758e-06
9.29276e-07
3.53459e-07
9.54062e-08
1.3586e-08
2.74483e-10
1.03212e-12
2.10659e-15
9.499e-17
6.55134e-18
1.11654e-17
1.28746e-13
1.68073e-09
7.48992e-08
1.03344e-05
4.35553e-06
3.36208e-06
2.94563e-06
2.52439e-06
1.75849e-06
9.64429e-07
4.02269e-07
9.6142e-08
4.98487e-09
1.15067e-11
2.16721e-15
1.08399e-11
9.87637e-15
7.56302e-17
2.3228e-15
6.32568e-15
1.26838e-08
1.16404e-06
2.02525e-05
2.73262e-06
2.37267e-06
1.92642e-06
1.56775e-06
1.0178e-06
5.37821e-07
1.5321e-07
2.20462e-09
6.34642e-13
4.54762e-16
3.65656e-12
1.99023e-10
3.5924e-12
1.55511e-14
9.51516e-14
6.88618e-10
5.283e-08
5.38087e-06
1.35436e-06
1.0936e-06
7.23847e-07
4.41656e-07
1.97751e-07
4.48788e-08
1.55103e-10
6.03193e-14
9.70484e-13
3.36346e-11
1.26229e-09
3.93887e-10
8.52693e-13
2.3508e-09
5.56372e-08
1.04e-06
1.91804e-05
2.86631e-06
9.7412e-07
5.55008e-07
3.51316e-07
2.01254e-07
1.04761e-07
2.99411e-08
1.88131e-09
7.80518e-11
2.01247e-10
7.07201e-09
5.79296e-09
1.2117e-08
6.3939e-08
5.6843e-07
2.75127e-05
3.92319e-06
1.48031e-06
7.12228e-07
3.59852e-07
3.76221e-07
1.46183e-07
4.47488e-09
2.61977e-10
2.29137e-10
2.51916e-08
1.10834e-07
2.25257e-07
6.41237e-07
1.48238e-05
7.06452e-06
3.79989e-06
1.93746e-06
4.03893e-07
1.1419e-11
3.77084e-10
1.92646e-08
2.39025e-07
6.39313e-07
2.09167e-06
8.44677e-05
2.87371e-05
9.36071e-06
6.12802e-07
1.27795e-07
6.34803e-08
2.27518e-07
1.63459e-06
4.61104e-05
4.4646e-05
2.93859e-05
0.00193519
0.000704134
0.000184332
2.4428e-07
7.24727e-08
2.22959e-07
5.30345e-07
2.24988e-06
1.01904e-05
6.35945e-07
2.40635e-05
6.65251e-05
8.55375e-05
2.57947e-05
1.08272e-08
4.50867e-09
6.14991e-09
2.38158e-08
7.11987e-08
1.86001e-07
1.46021e-06
1.04778e-05
4.71406e-05
9.24123e-06
2.1531e-05
1.66635e-05
1.65831e-05
6.93461e-06
1.22485e-08
9.10358e-10
7.61637e-11
9.89972e-11
1.83905e-09
9.82253e-09
4.86814e-08
2.54293e-07
1.37075e-06
0.000493208
7.77004e-06
4.73688e-06
4.37681e-06
4.81097e-06
4.05868e-06
1.18644e-06
4.86926e-09
8.23179e-11
1.55718e-13
3.51561e-11
3.94304e-10
1.86302e-09
8.1453e-09
4.07119e-08
1.84045e-07
0.000377611
1.65841e-06
4.80203e-07
6.71825e-07
7.03535e-07
4.84432e-07
1.0544e-07
5.64657e-10
4.48129e-14
1.62356e-12
6.91254e-11
4.59879e-10
1.8423e-09
5.91485e-09
1.62408e-08
5.16503e-08
4.36485e-07
0.000182228
2.22595e-05
1.01516e-07
7.48836e-08
7.30151e-08
5.68647e-08
2.14133e-08
2.49286e-10
9.92038e-15
5.77479e-18
2.37336e-15
2.80376e-13
1.91488e-11
1.67274e-10
8.1172e-10
3.20385e-09
1.86686e-08
1.80377e-07
7.52029e-06
0.000115673
2.12038e-06
2.84482e-08
1.21512e-08
6.74874e-09
1.6767e-09
1.37623e-10
2.4368e-10
2.04965e-12
1.65234e-17
5.7394e-18
1.70677e-17
3.21553e-14
1.7831e-12
4.17926e-11
3.24548e-10
3.45697e-09
6.36765e-08
1.50075e-06
0.000101675
3.01507e-07
1.35253e-08
5.28596e-09
2.77644e-09
2.20076e-09
5.05134e-09
3.5883e-09
1.73792e-10
1.0598e-14
5.61904e-19
5.59443e-18
1.43119e-17
6.03556e-14
3.67264e-12
4.41808e-11
3.92448e-10
5.93469e-09
2.28159e-07
2.1301e-06
5.24999e-05
2.47687e-07
5.73926e-08
4.37729e-08
3.56468e-08
5.23834e-08
4.30103e-08
2.19788e-08
3.26303e-09
3.20859e-12
4.35047e-18
3.58776e-19
6.20345e-18
6.36493e-18
6.40304e-18
1.02354e-16
8.91974e-13
4.76238e-11
6.1648e-09
5.80124e-06
2.42907e-05
3.51039e-07
2.11799e-07
2.75632e-07
2.96928e-07
2.66307e-07
1.68802e-07
8.47875e-08
2.21167e-08
5.14457e-10
5.72038e-14
3.44983e-19
1.50227e-18
6.413e-18
6.45869e-18
6.49611e-18
5.24143e-17
1.10816e-13
4.02949e-10
2.64429e-05
9.0524e-06
1.21186e-06
3.77592e-07
7.2807e-07
1.60072e-06
8.42955e-07
4.68626e-07
2.25838e-07
7.46841e-08
1.00819e-08
7.65182e-11
2.89833e-15
2.36042e-19
4.45757e-18
6.50437e-18
6.53645e-18
1.76102e-13
6.1493e-12
8.49513e-11
4.41477e-06
3.05423e-06
1.20148e-06
9.26289e-07
1.22207e-06
1.52676e-06
9.22508e-07
4.35191e-07
1.50236e-07
2.77196e-08
1.20762e-09
1.37123e-13
1.25741e-18
2.51883e-19
6.27155e-18
6.56752e-18
1.63845e-14
6.86479e-10
3.93811e-08
8.99281e-06
2.63128e-06
1.74576e-06
1.48878e-06
1.45425e-06
1.27481e-06
8.1858e-07
3.88937e-07
1.06186e-07
1.19921e-09
3.01703e-14
2.6199e-17
2.31803e-13
2.68176e-16
3.09623e-17
2.08326e-15
3.85026e-13
7.78569e-09
1.11915e-06
2.13897e-05
2.79199e-06
1.61544e-06
1.21684e-06
1.05884e-06
7.579e-07
4.1659e-07
1.19439e-07
7.17914e-10
1.26809e-12
3.56661e-15
3.17115e-12
1.20461e-10
1.69143e-12
1.12544e-14
4.66455e-14
9.39236e-10
3.23e-08
6.79547e-06
1.56055e-06
9.03785e-07
5.67763e-07
3.62532e-07
1.7611e-07
5.30642e-08
1.71685e-09
3.41796e-13
6.77228e-13
3.92249e-11
9.75349e-10
2.14712e-10
1.5279e-12
1.17662e-09
3.07453e-08
9.44304e-07
2.32385e-05
3.57564e-06
1.17238e-06
5.9817e-07
3.81428e-07
2.25475e-07
1.20309e-07
3.81278e-08
3.60134e-09
4.7545e-10
6.21638e-10
7.55247e-09
5.18101e-09
7.7061e-09
4.24328e-08
4.67796e-07
2.76922e-05
3.95539e-06
1.48581e-06
7.12609e-07
3.49716e-07
3.47238e-07
1.36865e-07
1.88392e-08
3.90028e-09
2.56909e-09
4.22279e-08
1.23428e-07
1.74686e-07
6.19514e-07
1.28919e-05
6.26186e-06
3.38628e-06
1.69661e-06
3.7281e-07
8.49477e-09
2.34201e-09
5.60539e-08
4.25547e-07
8.91638e-07
2.47491e-06
6.82758e-05
2.3583e-05
8.10236e-06
8.83715e-07
1.55567e-07
9.92118e-08
5.76798e-07
3.12409e-06
2.34519e-05
6.20244e-05
6.82718e-05
0.00119044
0.00041244
0.000136736
1.21823e-05
5.96746e-08
1.75777e-07
5.56316e-07
3.40992e-06
1.83599e-05
2.71949e-07
2.61949e-06
1.41781e-05
4.04459e-05
2.04256e-05
1.45089e-07
7.26007e-09
4.68853e-09
2.412e-08
9.48839e-08
2.79989e-07
1.83582e-06
1.06064e-05
1.07298e-05
2.30517e-06
4.48914e-06
7.2642e-06
9.68241e-06
6.00159e-06
6.53556e-08
2.1207e-09
1.36861e-10
4.15616e-10
2.99056e-09
1.51146e-08
6.05944e-08
2.75383e-07
2.81792e-06
0.000166313
2.35992e-06
8.37074e-07
1.40907e-06
2.18805e-06
2.45281e-06
1.09092e-06
1.72709e-08
2.74733e-10
1.0845e-13
1.43004e-11
2.56955e-10
1.59883e-09
8.53658e-09
5.40295e-08
3.33029e-07
0.000170806
3.62784e-07
1.55271e-07
2.64616e-07
3.47903e-07
2.9446e-07
1.0381e-07
1.31472e-09
7.44617e-13
3.24907e-12
6.76408e-11
4.08725e-10
1.74949e-09
6.34911e-09
2.05652e-08
8.72501e-08
6.40042e-07
6.45645e-05
8.45474e-06
1.85222e-08
2.42643e-08
2.98539e-08
2.59497e-08
9.62799e-09
6.33005e-12
4.12162e-16
4.03331e-18
8.15008e-15
5.49896e-13
2.19526e-11
1.67547e-10
8.4432e-10
3.49247e-09
1.79638e-08
1.13406e-07
2.44325e-06
3.90183e-05
8.48829e-07
4.12582e-09
3.61442e-09
2.64373e-09
1.06051e-09
5.93729e-10
1.60001e-10
2.25694e-13
1.64043e-18
3.57079e-18
8.52941e-18
1.24343e-14
1.02537e-12
3.99642e-11
3.23532e-10
2.51999e-09
2.74051e-08
4.62997e-07
4.62233e-05
1.00046e-07
1.75898e-09
1.39585e-09
1.53796e-09
3.46876e-09
7.94409e-09
4.02772e-09
6.26783e-11
1.01294e-14
4.97893e-19
4.80192e-18
6.26773e-18
1.88431e-15
7.47375e-13
2.26169e-11
2.36396e-10
3.12871e-09
1.33653e-07
1.23421e-06
2.83859e-05
7.99599e-08
1.70084e-08
2.11832e-08
2.88082e-08
4.46242e-08
4.84178e-08
2.50378e-08
3.49826e-09
2.05209e-11
3.90198e-16
1.68794e-19
6.19484e-18
6.36596e-18
6.39215e-18
1.03027e-17
1.94089e-13
2.25052e-11
4.0524e-09
6.68665e-06
1.27065e-05
1.13044e-07
8.74807e-08
1.39668e-07
1.94087e-07
2.26709e-07
1.74669e-07
8.76322e-08
2.13565e-08
1.17624e-09
8.37765e-13
1.46159e-17
1.28327e-18
6.41268e-18
6.45321e-18
6.48039e-18
6.52459e-18
2.94493e-17
2.26419e-11
2.15737e-05
4.32124e-06
5.93779e-07
1.49848e-07
3.38094e-07
8.17938e-07
7.18216e-07
4.11541e-07
1.99228e-07
6.26514e-08
8.96402e-09
1.58495e-10
9.55414e-14
3.21868e-18
3.81546e-18
6.50155e-18
6.52613e-18
5.53181e-17
7.38797e-13
1.89549e-12
2.53302e-06
1.44459e-06
5.21527e-07
4.06942e-07
5.77411e-07
6.69567e-07
5.89889e-07
3.03082e-07
9.93447e-08
1.59132e-08
3.03473e-11
5.14541e-17
1.74504e-19
7.66281e-19
6.46853e-18
6.5668e-18
6.33816e-18
1.67596e-10
1.81772e-08
7.19857e-06
1.57626e-06
9.35202e-07
7.46758e-07
7.19689e-07
7.00928e-07
4.85786e-07
2.21711e-07
3.84738e-08
2.23301e-10
3.88016e-15
1.00662e-15
1.16572e-13
7.70883e-17
5.99781e-18
1.01514e-16
1.79978e-13
3.53312e-09
8.37633e-07
1.96343e-05
2.53485e-06
1.10449e-06
7.48336e-07
6.44253e-07
4.73718e-07
2.51972e-07
6.17079e-08
1.64428e-10
1.75931e-16
3.19735e-16
9.24438e-13
5.80269e-11
1.16815e-13
6.05612e-16
8.39171e-15
3.29393e-10
1.4546e-08
7.07941e-06
1.61238e-06
7.44303e-07
4.3721e-07
2.81821e-07
1.45835e-07
5.29388e-08
3.24958e-09
3.52571e-12
2.10791e-12
5.66515e-11
1.11247e-09
8.20172e-11
1.23238e-13
2.41453e-10
1.26508e-08
7.07401e-07
2.39609e-05
3.90263e-06
1.32008e-06
6.80196e-07
4.5237e-07
2.76066e-07
1.49162e-07
4.77408e-08
2.48504e-09
2.33161e-10
5.31893e-10
8.25446e-09
3.87341e-09
3.8665e-09
1.80003e-08
2.81064e-07
2.8704e-05
4.25564e-06
1.67563e-06
8.23953e-07
4.0439e-07
3.48234e-07
1.17537e-07
1.21939e-08
4.34872e-09
4.64229e-09
5.45066e-08
1.04425e-07
1.10562e-07
4.67957e-07
1.30361e-05
6.3154e-06
3.3905e-06
1.64812e-06
4.20685e-07
4.58146e-08
1.71207e-08
1.25747e-07
5.8696e-07
9.43305e-07
2.41535e-06
6.0077e-05
2.20666e-05
8.11771e-06
1.59879e-06
2.15393e-07
2.4916e-07
1.17168e-06
4.88521e-06
2.64116e-05
3.63434e-05
4.92606e-05
0.000785847
0.000308215
9.91988e-05
7.89141e-06
1.02731e-07
7.18499e-08
3.18812e-07
3.23127e-06
2.77281e-05
1.04147e-07
1.77855e-07
5.49442e-06
2.05794e-05
1.43765e-05
3.97597e-07
1.42177e-08
1.74636e-09
1.11694e-08
6.9481e-08
3.04665e-07
2.95591e-06
1.78029e-05
2.12848e-06
6.92979e-07
1.59607e-06
3.39639e-06
5.33334e-06
4.45563e-06
2.29322e-07
3.93145e-09
8.19187e-11
6.44256e-10
3.49038e-09
2.24748e-08
1.05627e-07
5.19138e-07
5.61587e-06
5.00064e-05
7.84508e-07
3.62864e-07
8.55084e-07
1.28669e-06
1.47185e-06
8.55579e-07
4.93614e-08
4.16428e-10
4.65223e-14
8.23653e-12
1.96622e-10
1.22406e-09
8.36555e-09
5.69298e-08
4.05458e-07
3.19803e-05
5.26698e-08
9.91251e-08
1.76683e-07
2.25601e-07
1.84063e-07
7.40677e-08
1.71986e-09
4.30527e-14
1.36151e-12
3.69404e-11
2.41561e-10
1.13454e-09
4.69793e-09
1.78014e-08
1.01019e-07
1.07785e-06
1.72999e-05
2.65666e-06
6.71535e-09
1.33086e-08
1.86719e-08
1.6261e-08
4.0348e-09
2.25303e-14
1.52219e-16
1.06468e-17
1.32812e-14
7.95161e-13
1.81259e-11
1.26228e-10
6.89668e-10
3.31535e-09
2.31457e-08
2.06618e-07
5.31074e-06
1.09887e-05
2.973e-07
1.27005e-09
1.76707e-09
1.57125e-09
5.14697e-10
2.92566e-10
1.93571e-11
2.48825e-14
1.62042e-19
6.12244e-18
3.50011e-17
7.46899e-14
3.07633e-12
5.45378e-11
4.14119e-10
3.8567e-09
4.16096e-08
6.25255e-07
1.90496e-05
2.72023e-08
4.76704e-10
7.0856e-10
1.18646e-09
2.66705e-09
5.93189e-09
2.09982e-09
1.41825e-11
2.46151e-17
7.81094e-17
6.1495e-18
6.28683e-18
2.16652e-16
1.66256e-13
2.28193e-11
2.96973e-10
3.02837e-09
9.19822e-08
3.33821e-06
1.3016e-05
1.98654e-08
5.73882e-09
1.02966e-08
1.75514e-08
2.88124e-08
3.84805e-08
1.67762e-08
1.38517e-09
4.13831e-13
4.11244e-15
1.8635e-18
6.33266e-18
6.37009e-18
6.38751e-18
8.7227e-18
9.1774e-14
2.45656e-11
3.11725e-09
8.71688e-06
5.82836e-06
3.29514e-08
3.41731e-08
6.81931e-08
1.15096e-07
1.55721e-07
1.35938e-07
5.88641e-08
1.11051e-08
2.04622e-10
1.47679e-12
4.28922e-18
5.45533e-18
6.43053e-18
6.44753e-18
6.46647e-18
6.51287e-18
6.23871e-18
1.71303e-12
2.14897e-05
1.91746e-06
3.43324e-07
5.19531e-08
1.25617e-07
3.38778e-07
5.60249e-07
2.76099e-07
1.20992e-07
3.29629e-08
3.56047e-09
9.14416e-11
3.19541e-14
8.74036e-18
6.2802e-18
6.50476e-18
6.51448e-18
1.49831e-17
3.3304e-16
1.05491e-12
1.65716e-06
7.32391e-07
2.55431e-07
1.78748e-07
2.50021e-07
3.0094e-07
2.77729e-07
1.49061e-07
4.56674e-08
4.86471e-09
3.74248e-11
9.51728e-15
6.52373e-17
6.0876e-18
6.54049e-18
6.55969e-18
6.31089e-18
1.79748e-11
7.12148e-09
6.24859e-06
1.0348e-06
5.44145e-07
4.03615e-07
3.66605e-07
3.52498e-07
2.50205e-07
1.12561e-07
2.01791e-08
2.22575e-11
5.70414e-17
1.84391e-14
2.26696e-13
6.98845e-16
6.5141e-18
9.44292e-18
6.78189e-16
1.3599e-09
4.51302e-07
1.85565e-05
2.3619e-06
8.23497e-07
4.91039e-07
4.00026e-07
2.90143e-07
1.54955e-07
4.05186e-08
1.30416e-09
3.79002e-13
1.62764e-14
1.36656e-11
9.95544e-11
7.91625e-14
5.64784e-16
2.78141e-16
6.47621e-11
5.45431e-09
7.23225e-06
1.65456e-06
6.59989e-07
3.73011e-07
2.45822e-07
1.35327e-07
5.40899e-08
3.72331e-09
2.68311e-12
1.9462e-12
1.15578e-10
1.4064e-09
6.20633e-11
5.28504e-14
3.71184e-11
4.75891e-09
4.80013e-07
2.44799e-05
4.21808e-06
1.4752e-06
7.9631e-07
5.50273e-07
3.38851e-07
1.77238e-07
5.30431e-08
3.52296e-09
7.38173e-10
1.82423e-09
1.23437e-08
2.73764e-09
1.1448e-09
5.41915e-09
1.44102e-07
3.04801e-05
4.80317e-06
1.98797e-06
1.00143e-06
4.78454e-07
3.36305e-07
1.14115e-07
1.9569e-08
1.14386e-08
1.02684e-08
7.04522e-08
6.48884e-08
5.87355e-08
2.97133e-07
1.42355e-05
6.79493e-06
3.57729e-06
1.64707e-06
5.02819e-07
9.8399e-08
5.29947e-08
2.11247e-07
7.17274e-07
7.47661e-07
2.12586e-06
5.69276e-05
2.26197e-05
8.18286e-06
1.49963e-06
2.97717e-07
5.97122e-07
1.83424e-06
6.45417e-06
5.66941e-05
3.84168e-05
2.66504e-05
0.000554028
0.000212144
7.37199e-05
5.56587e-06
2.81702e-07
2.1937e-08
9.64161e-08
1.52952e-06
2.00943e-05
1.35935e-06
2.36295e-07
2.32594e-06
1.21179e-05
1.14582e-05
1.08971e-06
2.46717e-08
7.84264e-10
2.302e-09
2.4601e-08
1.62499e-07
2.68364e-06
2.70713e-05
3.40384e-07
2.30855e-07
6.25814e-07
2.24036e-06
3.96856e-06
3.85642e-06
4.0759e-07
5.36029e-09
6.27672e-11
2.94047e-10
1.89561e-09
1.54314e-08
1.10832e-07
7.89058e-07
9.39283e-06
9.51512e-06
1.60555e-07
2.3696e-07
6.39446e-07
1.02982e-06
1.22485e-06
7.79114e-07
6.2165e-08
2.97174e-10
6.50225e-14
5.8273e-12
1.55773e-10
8.89981e-10
7.72611e-09
5.70287e-08
3.92732e-07
1.15437e-05
2.1399e-08
8.42069e-08
1.62682e-07
2.08328e-07
1.60744e-07
6.13148e-08
5.11169e-10
2.06683e-15
2.38391e-13
1.30969e-11
1.12085e-10
6.00181e-10
2.80763e-09
1.20021e-08
7.82509e-08
1.22299e-06
3.33033e-06
7.59977e-07
3.00725e-09
9.22009e-09
1.68189e-08
1.53519e-08
3.2171e-09
8.14211e-15
6.84776e-19
6.03767e-18
3.19605e-16
2.01576e-13
6.29958e-12
5.86453e-11
3.66978e-10
2.03577e-09
1.78674e-08
2.16271e-07
7.87799e-06
2.87848e-06
7.53735e-08
3.86604e-10
9.34899e-10
1.25429e-09
4.81221e-10
5.27803e-11
8.78472e-13
2.24402e-18
3.46388e-18
6.12627e-18
3.30058e-17
6.92629e-14
2.77854e-12
4.3576e-11
3.47924e-10
3.94781e-09
5.08981e-08
9.47925e-07
7.38763e-06
5.07369e-09
9.57545e-11
1.85183e-10
3.54962e-10
8.66203e-10
2.61217e-09
2.7148e-10
6.55617e-14
1.21585e-17
2.75283e-18
6.25091e-18
6.30038e-18
5.6813e-15
7.40552e-13
4.28846e-11
4.63345e-10
4.61819e-09
1.31382e-07
3.96486e-06
5.28016e-06
3.52281e-09
1.71628e-09
4.05118e-09
8.25956e-09
1.50625e-08
2.22391e-08
6.84765e-09
1.29896e-10
4.6291e-14
1.59702e-18
5.93265e-18
6.34213e-18
6.37589e-18
6.38536e-18
1.23063e-16
3.38803e-13
7.00483e-11
6.33279e-09
8.13731e-06
2.35542e-06
1.28313e-08
1.1791e-08
2.98858e-08
6.08139e-08
9.46211e-08
8.1287e-08
2.8266e-08
3.11281e-09
2.32191e-11
3.07768e-15
2.29084e-18
6.38099e-18
6.42782e-18
6.44107e-18
6.45654e-18
6.50641e-18
6.23567e-18
5.5138e-12
1.9795e-05
7.92603e-07
1.84506e-07
1.82626e-08
4.1688e-08
1.17063e-07
2.58706e-07
1.4743e-07
5.77301e-08
1.17819e-08
7.227e-10
5.196e-12
3.21238e-16
4.82511e-18
6.47792e-18
6.50041e-18
6.50099e-18
6.53141e-18
4.71079e-17
1.30616e-12
1.25678e-06
3.87029e-07
1.40925e-07
8.72761e-08
1.02349e-07
1.44425e-07
1.25171e-07
6.53808e-08
1.48912e-08
2.80676e-10
2.51507e-14
2.25114e-17
2.79868e-16
6.47384e-18
6.5394e-18
6.55102e-18
6.28463e-18
4.31522e-12
2.11767e-09
5.7351e-06
7.81216e-07
3.58446e-07
2.46231e-07
2.03887e-07
1.89931e-07
1.32674e-07
5.67538e-08
8.70243e-09
3.8045e-11
5.15133e-14
3.37745e-12
3.31374e-13
1.64711e-15
6.54869e-18
6.56932e-18
1.60033e-16
5.09271e-10
1.79674e-07
1.83952e-05
2.28861e-06
6.9642e-07
3.65969e-07
2.75403e-07
1.93036e-07
1.04084e-07