/*--------------------------------*- C++ -*----------------------------------*\
| =========                 |                                                 |
| \\      /  F ield         | OpenFOAM: The Open Source CFD Toolbox           |
|  \\    /   O peration     | Version:  2406                                  |
|   \\  /    A nd           | Website:  www.openfoam.com                      |
|    \\/     M anipulation  |                                                 |
\*---------------------------------------------------------------------------*/
FoamFile
{
    version     2.0;
    format      ascii;
    arch        "LSB;label=32;scalar=64";
    class       volScalarField;
    location    "50";
    object      p;
}
// * * * * * * * * * * * * * * * * * * * * * * * * * * * * * * * * * * * * * //

dimensions      [0 2 -2 0 0 0 0];

internalField   nonuniform List<scalar> 
238188
(
292.122
381.217
480.855
626.958
307.239
386.667
480.993
624.105
839.989
281.705
370.607
472.483
636.401
870.411
243.649
328.811
471.633
681.377
918.746
329.618
319.492
294.809
259.172
264.314
301.86
370.262
259.117
255.808
258.066
276.996
347.071
262.002
253.832
251.009
255.593
245.444
252.35
279.378
279.274
279.264
278.589
279.157
279.278
279.275
279.217
279.216
279.244
279.284
279.315
272.477
276.386
278.318
279.042
279.103
279.081
279.096
279.146
279.206
279.262
279.314
279.357
279.394
268.523
262.58
261.812
277.258
278.663
278.686
278.718
278.907
279.06
279.171
279.25
279.31
279.359
279.4
279.435
303.327
275.168
276.966
261.143
274.905
279.792
277.023
277.643
278.587
278.955
279.145
279.257
279.327
279.374
279.411
279.443
288.237
297.619
316.826
273.882
274.694
277.909
273.006
275.362
278.3
278.841
279.116
279.269
279.357
279.408
279.437
279.457
279.48
339.374
299.796
311.935
300.796
268.415
269.293
273.446
274.95
276.976
278.195
278.743
279.068
279.259
279.377
279.445
279.477
279.485
279.494
279.508
303.526
300.262
317.992
281.14
276.918
266.487
268.454
273.524
277.854
278.284
278.683
278.998
279.22
279.374
279.466
279.51
279.517
279.51
279.524
304.7
267.422
280.414
272.022
269.988
273.227
277.312
278.414
278.037
278.197
278.568
278.913
279.175
279.353
279.465
279.525
279.541
279.529
279.536
316.763
303.209
284.021
269.118
265.734
272.42
276.497
276.832
277.063
277.444
277.904
278.409
278.833
279.137
279.337
279.46
279.528
279.552
279.544
279.549
308.998
290.867
279.161
259.935
248.067
264.649
272.164
274.713
275.891
276.758
277.549
278.248
278.773
279.123
279.339
279.465
279.531
279.555
279.554
279.561
300.082
286.365
272.745
260.328
250.144
262.318
269.149
273.013
274.833
276.195
277.288
278.156
278.762
279.142
279.363
279.483
279.539
279.559
279.567
279.572
282.936
272.793
264.839
258.946
262.075
268.873
272.421
274.255
275.995
277.285
278.21
278.826
279.198
279.405
279.51
279.553
279.57
279.578
279.583
282.257
274.986
268.993
266.678
267.427
270.834
272.993
274.414
276.31
277.61
278.446
278.971
279.284
279.455
279.538
279.569
279.582
279.588
279.595
283.383
277.755
273.857
271.875
272.162
273.221
274.184
275.386
277.096
278.177
278.796
279.163
279.385
279.504
279.561
279.585
279.594
279.599
279.673
277.51
275.95
275.486
275.532
275.986
276.988
278.082
278.761
279.127
279.345
279.482
279.553
279.586
279.598
279.604
279.611
280.326
279.351
278.486
278.003
277.837
278
278.467
278.91
279.191
279.352
279.466
279.545
279.585
279.602
279.609
279.615
279.885
279.497
279.243
279.16
279.157
279.245
279.354
279.431
279.489
279.539
279.578
279.601
279.613
279.618
279.649
279.549
279.523
279.522
279.531
279.546
279.564
279.581
279.599
279.611
279.619
279.715
279.651
279.628
279.614
279.604
279.601
279.604
279.611
279.272
279.233
279.235
278.728
279.139
279.142
279.147
279.163
279.192
279.23
279.273
279.313
266.261
273.979
278.096
278.984
278.965
278.979
279.044
279.118
279.19
279.249
279.303
279.347
279.378
266.365
248.454
267.84
277.519
278.653
278.629
278.728
278.892
279.038
279.151
279.23
279.293
279.343
279.383
279.417
375.375
281.97
267.073
272.446
276.867
278.23
278.042
278.367
278.715
278.961
279.126
279.233
279.302
279.35
279.392
279.425
341.559
278.334
271.741
275.001
277.505
278.004
277.527
278.107
278.567
278.888
279.106
279.244
279.328
279.379
279.411
279.438
279.463
334.806
299.369
280.997
275.413
274.99
276.156
277.893
277.605
278.02
278.443
278.802
279.064
279.241
279.352
279.415
279.446
279.463
279.483
279.497
312.11
285.155
274.642
271.759
271.566
272.326
275.726
278.334
278.083
278.34
278.694
278.994
279.211
279.353
279.437
279.479
279.495
279.504
279.515
308.431
278.321
273.537
272.354
272.69
273.588
275.916
277.588
277.751
278.12
278.556
278.916
279.171
279.339
279.442
279.498
279.521
279.527
279.531
315.789
296.48
277.298
270.742
269.167
271.048
273.414
275.201
276.323
277.05
277.761
278.39
278.85
279.147
279.333
279.445
279.507
279.535
279.544
279.547
303.987
288.248
273.374
262.997
261.781
266.382
270.993
273.535
275.055
276.229
277.339
278.224
278.808
279.151
279.345
279.457
279.519
279.549
279.561
279.561
296.158
283.223
270.875
258.364
253.858
258.012
267.001
271.439
273.952
275.572
277.024
278.126
278.811
279.183
279.378
279.483
279.537
279.563
279.573
279.572
281.642
272.423
261.956
256.66
260.069
267.123
270.405
273.423
275.472
277.054
278.193
278.88
279.243
279.423
279.516
279.559
279.577
279.582
279.582
282.142
275.787
269.881
266.833
267.561
269.4
270.95
273.71
276
277.503
278.472
279.03
279.326
279.474
279.548
279.58
279.589
279.591
279.59
282.079
278.546
274.66
272.245
271.531
271.696
272.969
275.195
277.044
278.189
278.853
279.225
279.425
279.528
279.579
279.596
279.599
279.599
279.912
278.105
276.019
274.964
274.987
275.958
277.239
278.229
278.839
279.188
279.394
279.511
279.572
279.599
279.605
279.606
279.605
280.314
279.602
278.79
278.127
278.021
278.314
278.714
279.056
279.277
279.412
279.505
279.565
279.596
279.608
279.612
279.611
279.859
279.563
279.359
279.284
279.29
279.35
279.423
279.481
279.526
279.564
279.591
279.607
279.614
279.615
279.627
279.568
279.556
279.554
279.556
279.566
279.578
279.593
279.604
279.61
279.616
279.705
279.642
279.628
279.61
279.599
279.596
279.601
279.607
279.155
279.184
279.214
278.629
278.822
278.941
279.051
279.125
279.178
279.221
279.264
279.304
265.588
271.713
277.593
278.389
278.631
278.859
279.007
279.107
279.178
279.246
279.297
279.336
279.368
268.511
264.27
271.031
276.948
277.879
278.347
278.656
278.881
279.036
279.147
279.23
279.284
279.338
279.374
279.407
365.825
272.218
270.432
275.456
276.843
277.639
278.111
278.481
278.768
278.977
279.122
279.223
279.296
279.339
279.383
279.414
306.512
277.752
275.413
275.908
276.679
277.527
277.936
278.34
278.675
278.927
279.106
279.228
279.31
279.367
279.404
279.426
279.452
365.58
284.32
277.228
276.379
276.226
276.547
277.25
277.701
278.134
278.531
278.848
279.074
279.228
279.327
279.388
279.422
279.439
279.47
279.487
326.335
277.901
275.36
274.578
274.809
275.79
276.879
277.361
277.854
278.34
278.738
279.024
279.216
279.339
279.413
279.454
279.471
279.491
279.507
287.483
275.398
274.257
273.682
273.756
274.571
275.613
276.512
277.338
278.066
278.613
278.973
279.203
279.346
279.432
279.48
279.506
279.518
279.526
313.01
282.948
275.205
272.308
271.096
271.205
272.473
273.692
275.049
276.456
277.646
278.461
278.94
279.205
279.357
279.446
279.498
279.528
279.541
279.544
300.254
283.144
272.938
265.762
262.368
263.304
267.542
270.491
272.894
275.24
277.105
278.287
278.922
279.233
279.387
279.471
279.52
279.549
279.558
279.559
294.373
283.027
270.993
261.953
256.889
257.887
263.387
267.773
271.143
274.304
276.734
278.197
278.941
279.284
279.433
279.504
279.544
279.568
279.573
279.572
282.75
272.524
263.92
258.954
259.662
263.547
267.28
270.949
274.362
276.873
278.326
279.038
279.357
279.487
279.545
279.574
279.581
279.584
279.582
282.517
276.668
270.038
266.226
265.639
266.793
269.152
272.492
275.522
277.576
278.686
279.216
279.45
279.541
279.579
279.596
279.594
279.593
279.591
282.194
279.115
275.279
272.981
271.599
271.728
273.267
275.409
277.299
278.483
279.095
279.396
279.534
279.588
279.61
279.607
279.602
279.6
280.144
278.612
276.684
276.17
276.225
277.027
277.864
278.636
279.115
279.374
279.515
279.584
279.617
279.617
279.612
279.609
279.606
280.455
279.786
278.998
278.601
278.595
278.858
279.096
279.318
279.443
279.523
279.575
279.606
279.614
279.615
279.615
279.613
279.937
279.621
279.361
279.321
279.347
279.458
279.509
279.544
279.571
279.584
279.603
279.613
279.617
279.617
279.648
279.578
279.564
279.555
279.564
279.574
279.586
279.601
279.61
279.614
279.617
279.705
279.642
279.623
279.607
279.6
279.599
279.605
279.611
279.059
279.155
279.206
278.146
278.348
278.616
278.982
279.113
279.178
279.221
279.261
279.299
270.13
267.95
275.544
277.564
278.443
278.849
279.017
279.115
279.179
279.241
279.291
279.329
279.36
265.881
269.226
271.967
276.385
277.48
278.217
278.651
278.891
279.039
279.142
279.221
279.279
279.333
279.368
279.399
289.053
270.386
272.214
275.546
276.569
277.49
278.113
278.517
278.796
278.986
279.117
279.213
279.287
279.335
279.381
279.409
277.387
275.294
275.574
276.057
276.663
277.403
277.963
278.384
278.709
278.943
279.107
279.22
279.298
279.357
279.397
279.422
279.445
308.142
278.55
276.324
275.937
275.951
276.366
277.023
277.614
278.135
278.559
278.872
279.084
279.225
279.315
279.373
279.41
279.431
279.462
279.478
288.264
277.033
275.612
274.877
274.851
275.513
276.353
277.076
277.774
278.357
278.776
279.052
279.228
279.336
279.401
279.438
279.454
279.478
279.496
277.359
276.399
274.804
273.909
273.771
274.291
275.113
276.108
277.15
278.041
278.652
279.017
279.232
279.358
279.43
279.469
279.493
279.505
279.516
297.132
276.703
275.955
273.409
272.028
271.489
271.888
272.786
274.301
276.036
277.508
278.468
278.982
279.244
279.38
279.453
279.494
279.519
279.531
279.537
293.308
278.247
274.079
269.007
265.306
264.46
266.577
268.934
271.681
274.586
276.862
278.256
278.953
279.271
279.414
279.483
279.52
279.543
279.552
279.555
290.249
280.235
272.038
265.138
259.597
259.037
262.001
266.01
269.901
273.695
276.523
278.176
278.975
279.319
279.458
279.516
279.545
279.564
279.569
279.569
281.747
272.421
265.785
260.319
259.447
261.981
265.93
270.074
273.97
276.79
278.361
279.092
279.396
279.513
279.555
279.577
279.581
279.582
279.58
282.236
276.494
270.387
266.276
265.178
266.451
269.113
272.498
275.575
277.669
278.774
279.28
279.491
279.567
279.591
279.601
279.597
279.593
279.589
282.079
279.258
275.433
273.347
272.14
272.483
274.001
275.874
277.536
278.612
279.175
279.446
279.566
279.61
279.622
279.614
279.604
279.601
280.176
278.836
277.037
276.704
276.804
277.47
278.149
278.779
279.185
279.42
279.547
279.609
279.637
279.632
279.618
279.61
279.606
280.46
279.801
279.103
278.731
278.764
278.956
279.152
279.349
279.472
279.549
279.595
279.623
279.63
279.623
279.619
279.615
279.95
279.626
279.37
279.34
279.358
279.467
279.517
279.556
279.585
279.598
279.614
279.619
279.619
279.618
279.65
279.58
279.559
279.556
279.568
279.579
279.593
279.606
279.614
279.618
279.618
279.695
279.635
279.617
279.606
279.602
279.602
279.608
279.614
279.037
279.158
279.212
276.914
278.037
278.659
279.11
279.16
279.193
279.227
279.261
279.297
275.722
269.894
273.835
277.129
278.668
279.044
279.081
279.143
279.191
279.239
279.283
279.32
279.35
273.842
275.423
274.128
276.24
277.49
278.393
278.776
278.943
279.064
279.149
279.218
279.27
279.321
279.356
279.386
275.464
274.671
275.353
275.799
276.613
277.568
278.237
278.608
278.855
279.017
279.128
279.21
279.277
279.325
279.37
279.397
273.261
275.874
275.975
276.094
276.644
277.394
278.014
278.456
278.774
278.986
279.127
279.224
279.293
279.347
279.387
279.414
279.435
287.657
276.645
276.671
276.051
275.904
276.246
276.904
277.6
278.19
278.633
278.931
279.12
279.239
279.315
279.365
279.4
279.424
279.451
279.466
280.148
277.133
276.365
275.381
275.004
275.338
276.08
276.952
277.789
278.437
278.862
279.114
279.262
279.347
279.397
279.426
279.441
279.464
279.483
277.442
277.049
275.632
274.37
273.795
274.002
274.716
275.821
277.051
278.075
278.735
279.098
279.289
279.387
279.437
279.462
279.478
279.489
279.501
288.02
277.313
276.77
274.462
272.74
271.703
271.518
272.202
273.8
275.776
277.449
278.506
279.05
279.308
279.423
279.472
279.495
279.509
279.517
279.524
287.62
277.796
275.381
271.544
268.135
266.177
266.673
268.442
271.241
274.355
276.8
278.274
279
279.324
279.458
279.508
279.526
279.537
279.542
279.546
286.556
279.095
273.546
268.435
263.266
261.283
262.472
265.767
269.678
273.611
276.535
278.219
279.02
279.361
279.493
279.537
279.551
279.56
279.562
279.562
280.946
273.347
268.48
263.122
261.083
262.466
266.016
270.269
274.177
276.934
278.45
279.147
279.435
279.541
279.571
279.579
279.579
279.576
279.574
281.698
276.773
271.887
267.772
266.05
267.065
269.778
273.086
275.944
277.853
278.867
279.331
279.522
279.589
279.602
279.601
279.595
279.588
279.584
281.803
279.473
276.139
274.17
272.895
273.335
274.795
276.443
277.818
278.728
279.23
279.477
279.587
279.626
279.629
279.617
279.601
279.597
280.233
279.034
277.453
277.123
277.258
277.803
278.374
278.883
279.23
279.443
279.563
279.622
279.647
279.641
279.618
279.607
279.602
280.448
279.815
279.163
278.837
278.864
279.008
279.184
279.361
279.481
279.558
279.603
279.63
279.639
279.627
279.618
279.611
279.944
279.618
279.384
279.344
279.355
279.458
279.51
279.554
279.586
279.602
279.617
279.62
279.618
279.617
279.636
279.566
279.546
279.547
279.562
279.576
279.592
279.606
279.613
279.617
279.615
279.676
279.62
279.605
279.598
279.597
279.599
279.606
279.612
279.104
279.192
279.222
276.525
277.882
278.925
279.286
279.218
279.209
279.23
279.259
279.292
276.239
268.608
272.953
276.925
278.733
279.089
279.114
279.165
279.203
279.24
279.277
279.31
279.338
278.169
276.611
274.345
276.07
277.541
278.451
278.826
278.982
279.087
279.16
279.219
279.261
279.305
279.34
279.371
278.492
278.317
276.825
275.897
276.683
277.609
278.296
278.67
278.905
279.051
279.147
279.213
279.268
279.309
279.35
279.379
278.556
277.357
276.347
276.182
276.674
277.407
278.055
278.511
278.827
279.024
279.151
279.233
279.29
279.335
279.372
279.398
279.417
281.774
276.695
277.015
276.27
275.954
276.228
276.879
277.625
278.252
278.698
278.978
279.15
279.254
279.318
279.358
279.389
279.411
279.434
279.449
279.596
276.903
276.816
275.758
275.126
275.266
275.97
276.934
277.846
278.511
278.92
279.153
279.284
279.355
279.393
279.414
279.426
279.446
279.465
278.28
277.517
276.254
274.75
273.8
273.762
274.467
275.711
277.082
278.148
278.793
279.137
279.318
279.403
279.44
279.453
279.46
279.468
279.482
284.211
277.945
277.28
275.238
273.221
271.77
271.276
271.929
273.663
275.816
277.54
278.566
279.082
279.332
279.444
279.483
279.492
279.495
279.498
279.504
284.399
277.973
276.184
273.222
270.056
267.606
267.175
268.599
271.376
274.554
276.974
278.363
279.032
279.342
279.476
279.521
279.527
279.527
279.526
279.529
284.02
278.94
274.666
271.056
266.453
263.63
263.704
266.282
270.092
273.988
276.8
278.346
279.058
279.373
279.502
279.544
279.552
279.551
279.549
279.549
280.645
274.521
270.976
266.021
263.174
263.597
266.508
270.806
274.668
277.233
278.58
279.184
279.439
279.538
279.568
279.573
279.57
279.564
279.562
281.308
277.61
273.626
269.67
267.438
267.937
270.462
273.725
276.39
278.077
278.951
279.347
279.516
279.579
279.592
279.59
279.585
279.576
279.572
281.554
279.776
277.004
275.148
273.773
274.039
275.347
276.858
278.06
278.834
279.262
279.476
279.576
279.613
279.615
279.608
279.591
279.587
280.314
279.283
277.9
277.512
277.586
278.031
278.519
278.947
279.254
279.444
279.553
279.61
279.633
279.631
279.607
279.595
279.591
280.453
279.878
279.264
278.946
278.935
279.046
279.204
279.361
279.475
279.548
279.593
279.62
279.631
279.618
279.608
279.6
279.953
279.638
279.406
279.346
279.345
279.447
279.498
279.542
279.575
279.593
279.609
279.612
279.61
279.608
279.628
279.551
279.529
279.53
279.546
279.564
279.582
279.597
279.606
279.609
279.605
279.655
279.602
279.588
279.583
279.584
279.589
279.597
279.603
279.153
279.21
279.227
277.071
277.855
278.947
279.311
279.225
279.208
279.225
279.25
279.278
273.56
267.718
273.633
277.143
278.727
279.057
279.107
279.161
279.205
279.236
279.268
279.296
279.321
278.221
274.99
272.095
275.72
277.483
278.437
278.832
278.995
279.093
279.165
279.217
279.255
279.287
279.321
279.35
279.646
278.246
276.367
275.478
276.503
277.53
278.298
278.701
278.931
279.07
279.158
279.214
279.259
279.29
279.326
279.356
278.834
277.807
276.296
276.053
276.632
277.398
278.079
278.543
278.85
279.041
279.161
279.235
279.282
279.318
279.35
279.374
279.393
280.143
277.031
277.347
276.391
275.946
276.234
276.899
277.671
278.302
278.732
278.995
279.157
279.254
279.311
279.346
279.372
279.393
279.411
279.425
279.712
277.319
277.244
276.013
275.186
275.233
275.945
276.973
277.912
278.557
278.936
279.156
279.282
279.348
279.381
279.397
279.409
279.423
279.44
278.761
277.876
276.737
275.002
273.728
273.536
274.304
275.708
277.17
278.22
278.817
279.138
279.314
279.397
279.428
279.438
279.438
279.442
279.456
282.346
278.36
277.463
275.712
273.479
271.644
270.987
271.746
273.696
275.983
277.68
278.618
279.088
279.327
279.439
279.476
279.48
279.474
279.47
279.476
282.565
278.305
276.489
274.245
271.168
268.423
267.485
268.759
271.638
274.871
277.209
278.458
279.048
279.336
279.471
279.516
279.517
279.509
279.502
279.503
282.456
279.103
275.339
272.856
268.806
265.56
264.928
266.696
270.519
274.44
277.108
278.471
279.083
279.362
279.491
279.536
279.542
279.533
279.527
279.526
280.527
275.401
272.957
268.649
265.377
264.933
267.099
271.35
275.165
277.534
278.69
279.196
279.418
279.518
279.55
279.558
279.555
279.544
279.542
281.068
278.437
275.173
271.642
269.226
269.216
271.287
274.356
276.821
278.289
279.014
279.341
279.488
279.551
279.565
279.567
279.565
279.556
279.552
281.358
280.046
277.883
276.217
274.864
274.921
275.954
277.25
278.28
278.927
279.279
279.457
279.545
279.58
279.583
279.583
279.57
279.567
280.384
279.536
278.374
277.95
277.935
278.259
278.652
279.011
279.273
279.436
279.529
279.581
279.6
279.602
279.583
279.574
279.571
280.456
279.956
279.392
279.08
279.033
279.104
279.229
279.363
279.464
279.528
279.57
279.595
279.607
279.596
279.585
279.581
279.977
279.679
279.448
279.371
279.354
279.439
279.484
279.524
279.554
279.574
279.591
279.593
279.591
279.588
279.632
279.545
279.517
279.514
279.529
279.546
279.565
279.579
279.59
279.591
279.588
279.637
279.583
279.568
279.563
279.566
279.573
279.58
279.588
279.145
279.198
279.218
277.698
278.129
278.971
279.25
279.198
279.192
279.21
279.236
279.26
272.977
270.603
275.302
277.687
278.761
279.031
279.098
279.147
279.197
279.226
279.252
279.277
279.299
276.474
272.792
270.256
275.678
277.583
278.474
278.852
279.002
279.085
279.153
279.207
279.244
279.271
279.299
279.326
278.544
277.136
275.036
274.891
276.325
277.5
278.319
278.734
278.944
279.07
279.153
279.205
279.245
279.273
279.299
279.328
277.594
277.639
276.04
275.882
276.624
277.432
278.131
278.575
278.855
279.033
279.15
279.221
279.264
279.294
279.32
279.344
279.364
279.98
277.891
277.593
276.422
275.943
276.318
276.995
277.754
278.353
278.743
278.984
279.139
279.234
279.289
279.321
279.346
279.365
279.382
279.395
279.965
278.208
277.56
276.166
275.254
275.288
276.019
277.065
277.983
278.58
278.922
279.13
279.256
279.322
279.355
279.371
279.385
279.397
279.41
279.277
278.329
277.05
275.181
273.703
273.425
274.276
275.799
277.295
278.286
278.815
279.11
279.28
279.365
279.4
279.411
279.409
279.412
279.424
281.369
278.868
277.66
275.976
273.647
271.51
270.727
271.652
273.835
276.212
277.826
278.651
279.068
279.296
279.41
279.449
279.454
279.444
279.436
279.441
281.573
278.733
276.667
274.823
271.853
268.861
267.561
268.806
271.875
275.217
277.444
278.542
279.044
279.309
279.445
279.492
279.493
279.48
279.469
279.467
281.583
279.404
275.768
273.894
270.376
267.031
265.825
266.998
270.882
274.893
277.405
278.58
279.084
279.333
279.463
279.513
279.519
279.507
279.497
279.494
280.508
276.096
274.232
270.573
267.378
266.388
267.964
272.055
275.702
277.821
278.78
279.188
279.384
279.483
279.52
279.531
279.531
279.514
279.511
280.924
279.062
276.309
273.303
271.081
270.784
272.396
275.115
277.273
278.49
279.06
279.317
279.446
279.509
279.527
279.534
279.535
279.526
279.523
281.184
280.217
278.574
277.175
275.997
275.913
276.637
277.663
278.496
279.009
279.281
279.423
279.499
279.532
279.538
279.546
279.539
279.537
280.415
279.725
278.807
278.376
278.304
278.5
278.791
279.077
279.287
279.416
279.493
279.537
279.551
279.558
279.548
279.542
279.542
280.438
280.01
279.509
279.215
279.143
279.172
279.259
279.367
279.448
279.499
279.536
279.557
279.567
279.559
279.551
279.551
279.995
279.72
279.498
279.408
279.374
279.434
279.469
279.501
279.524
279.544
279.561
279.562
279.56
279.558
279.64
279.544
279.508
279.5
279.51
279.524
279.539
279.552
279.565
279.564
279.562
279.62
279.564
279.547
279.541
279.543
279.548
279.556
279.565
279.118
279.178
279.2
278.184
278.396
278.998
279.183
279.175
279.177
279.19
279.215
279.237
274.154
273.918
276.816
278.178
278.842
279.041
279.101
279.132
279.176
279.208
279.231
279.254
279.272
275.476
271.652
270.253
276.132
277.877
278.59
278.901
279.017
279.075
279.13
279.181
279.226
279.25
279.274
279.297
277.698
276.312
273.759
274.174
276.239
277.578
278.381
278.78
278.955
279.06
279.132
279.183
279.223
279.252
279.273
279.298
277.712
277.411
275.62
275.632
276.641
277.515
278.212
278.621
278.858
279.014
279.121
279.191
279.235
279.264
279.288
279.309
279.329
279.989
278.656
277.652
276.33
275.916
276.459
277.168
277.878
278.416
278.751
278.961
279.104
279.197
279.253
279.286
279.31
279.329
279.345
279.36
280.14
279.012
277.67
276.194
275.326
275.439
276.192
277.212
278.067
278.599
278.899
279.089
279.21
279.279
279.315
279.333
279.351
279.364
279.375
279.72
278.651
277.147
275.259
273.741
273.469
274.404
275.979
277.435
278.341
278.805
279.069
279.229
279.315
279.355
279.371
279.372
279.379
279.388
280.932
279.307
277.837
276.086
273.749
271.455
270.631
271.702
274.075
276.461
277.957
278.679
279.039
279.25
279.359
279.403
279.414
279.404
279.398
279.402
281.09
279.114
276.856
275.148
272.281
269.189
267.751
268.948
272.212
275.57
277.658
278.61
279.031
279.269
279.4
279.448
279.454
279.44
279.427
279.423
281.127
279.658
276.104
274.457
271.331
268.071
266.521
267.513
271.447
275.384
277.681
278.667
279.077
279.295
279.422
279.473
279.481
279.469
279.457
279.451
280.506
276.737
274.982
271.773
268.869
267.708
269.115
272.951
276.288
278.095
278.855
279.173
279.342
279.438
279.479
279.494
279.497
279.475
279.471
280.815
279.476
277.089
274.537
272.661
272.305
273.633
275.921
277.713
278.666
279.089
279.285
279.395
279.455
279.478
279.491
279.497
279.487
279.484
281.015
280.281
279.041
277.908
276.958
276.805
277.288
278.054
278.689
279.069
279.268
279.377
279.442
279.473
279.482
279.501
279.497
279.498
280.396
279.832
279.127
278.727
278.614
278.714
278.915
279.13
279.289
279.384
279.445
279.479
279.49
279.504
279.501
279.499
279.501
280.391
280.027
279.592
279.323
279.236
279.236
279.286
279.364
279.423
279.457
279.488
279.503
279.514
279.51
279.506
279.509
279.991
279.745
279.536
279.441
279.395
279.426
279.45
279.47
279.483
279.503
279.518
279.518
279.514
279.517
279.644
279.54
279.499
279.485
279.489
279.496
279.504
279.515
279.526
279.527
279.526
279.602
279.544
279.524
279.515
279.512
279.514
279.523
279.532
279.108
279.172
279.189
278.522
278.624
279.045
279.185
279.172
279.169
279.175
279.192
279.211
275.571
276.08
277.828
278.492
278.938
279.065
279.111
279.12
279.157
279.181
279.206
279.226
279.243
275.373
271.941
271.395
276.858
278.243
278.729
278.957
279.04
279.07
279.107
279.145
279.198
279.224
279.246
279.264
277.337
275.599
272.92
273.564
276.336
277.766
278.471
278.832
278.966
279.046
279.106
279.151
279.193
279.223
279.245
279.266
278.218
277.044
275.062
275.317
276.694
277.642
278.308
278.679
278.868
278.995
279.087
279.152
279.199
279.228
279.252
279.272
279.292
279.738
278.799
277.45
276.109
275.852
276.613
277.384
278.035
278.491
278.767
278.941
279.064
279.15
279.206
279.242
279.266
279.288
279.303
279.32
280.06
279.225
277.558
276.131
275.424
275.689
276.449
277.404
278.17
278.628
278.881
279.044
279.154
279.224
279.264
279.285
279.308
279.324
279.335
279.915
278.642
277.073
275.278
273.863
273.686
274.678
276.229
277.587
278.397
278.801
279.027
279.168
279.25
279.296
279.319
279.327
279.341
279.348
280.776
279.557
277.913
276.135
273.833
271.519
270.75
271.96
274.419
276.714
278.082
278.708
279.01
279.193
279.292
279.34
279.36
279.356
279.355
279.36
280.849
279.357
277.042
275.365
272.551
269.481
268.135
269.332
272.69
275.935
277.841
278.663
279.015
279.22
279.337
279.387
279.401
279.389
279.378
279.373
280.865
279.803
276.387
274.786
271.899
268.777
267.218
268.256
272.155
275.862
277.904
278.732
279.064
279.25
279.367
279.417
279.429
279.419
279.407
279.398
280.466
277.273
275.482
272.547
269.926
268.873
270.34
273.871
276.808
278.311
278.905
279.15
279.292
279.382
279.425
279.443
279.45
279.426
279.421
280.696
279.702
277.648
275.475
273.922
273.635
274.781
276.652
278.073
278.791
279.095
279.242
279.336
279.393
279.419
279.438
279.449
279.437
279.434
280.838
280.269
279.326
278.432
277.679
277.51
277.824
278.372
278.828
279.096
279.235
279.32
279.376
279.404
279.417
279.445
279.445
279.447
280.336
279.872
279.335
278.974
278.84
278.874
279.004
279.156
279.269
279.335
279.383
279.409
279.416
279.439
279.443
279.445
279.45
280.316
280.009
279.637
279.393
279.3
279.28
279.297
279.347
279.383
279.402
279.426
279.435
279.449
279.449
279.449
279.455
279.966
279.749
279.556
279.46
279.408
279.41
279.422
279.429
279.432
279.449
279.462
279.463
279.457
279.462
279.638
279.53
279.486
279.465
279.462
279.459
279.459
279.467
279.471
279.476
279.476
279.578
279.518
279.495
279.481
279.471
279.472
279.482
279.487
279.177
279.191
279.188
278.727
278.809
279.115
279.195
279.18
279.167
279.163
279.174
279.186
276.714
277.337
278.355
278.694
279.012
279.093
279.123
279.113
279.139
279.157
279.179
279.198
279.212
275.7
273.294
273.563
277.601
278.561
278.852
279.011
279.065
279.074
279.092
279.111
279.161
279.196
279.216
279.231
276.939
275.019
272.765
273.447
276.652
278.044
278.585
278.891
278.985
279.037
279.082
279.118
279.159
279.191
279.215
279.234
277.797
276.414
274.413
275.026
276.837
277.824
278.418
278.748
278.89
278.984
279.057
279.113
279.16
279.189
279.214
279.236
279.254
279.277
278.36
277.016
275.773
275.764
276.774
277.597
278.2
278.575
278.793
278.929
279.028
279.102
279.157
279.193
279.218
279.244
279.258
279.276
279.688
278.923
277.316
276.021
275.56
276.033
276.783
277.623
278.283
278.667
278.874
279.004
279.097
279.164
279.206
279.23
279.258
279.277
279.29
279.793
278.555
276.968
275.312
274.104
274.075
275.084
276.522
277.744
278.46
278.807
278.99
279.104
279.178
279.228
279.256
279.272
279.295
279.303
280.593
279.52
277.969
276.223
273.969
271.765
271.122
272.427
274.814
276.941
278.187
278.735
278.983
279.129
279.212
279.263
279.292
279.297
279.308
279.314
280.63
279.431
277.221
275.569
272.766
269.819
268.682
269.94
273.217
276.245
277.977
278.7
278.994
279.162
279.258
279.307
279.333
279.329
279.324
279.322
280.639
279.835
276.643
275.062
272.288
269.336
267.969
269.118
272.855
276.247
278.059
278.77
279.043
279.196
279.296
279.343
279.362
279.358
279.348
279.337
280.374
277.69
275.919
273.169
270.778
269.94
271.492
274.668
277.199
278.45
278.925
279.116
279.233
279.313
279.355
279.377
279.393
279.369
279.363
280.551
279.802
278.076
276.226
274.926
274.72
275.701
277.202
278.311
278.853
279.075
279.187
279.267
279.32
279.347
279.372
279.391
279.379
279.376
280.655
280.209
279.489
278.796
278.177
278.007
278.202
278.579
278.896
279.082
279.182
279.25
279.298
279.323
279.341
279.377
279.384
279.388
280.251
279.868
279.457
279.133
278.986
278.973
279.045
279.145
279.222
279.268
279.306
279.325
279.331
279.363
279.375
279.381
279.389
280.224
279.97
279.652
279.43
279.331
279.296
279.285
279.308
279.324
279.332
279.348
279.352
279.371
279.375
279.379
279.389
279.93
279.739
279.557
279.461
279.406
279.382
279.377
279.375
279.372
279.384
279.393
279.393
279.385
279.393
279.622
279.509
279.462
279.435
279.421
279.411
279.407
279.41
279.405
279.411
279.407
279.543
279.484
279.455
279.436
279.423
279.425
279.433
279.429
279.215
279.21
279.19
278.84
278.959
279.168
279.206
279.189
279.167
279.154
279.158
279.164
277.544
278.039
278.61
278.834
279.052
279.128
279.14
279.112
279.123
279.135
279.153
279.173
279.184
276.209
275.18
276.007
278.198
278.77
278.937
279.063
279.091
279.083
279.085
279.087
279.124
279.169
279.187
279.199
276.691
274.83
273.087
274.088
277.164
278.325
278.712
278.952
279.011
279.037
279.068
279.091
279.127
279.159
279.183
279.202
277.044
275.712
273.868
274.981
277.096
278.04
278.539
278.817
278.918
278.981
279.035
279.08
279.123
279.152
279.175
279.2
279.217
278.822
277.777
276.514
275.436
275.754
276.969
277.782
278.338
278.653
278.822
278.925
278.999
279.059
279.11
279.145
279.168
279.199
279.215
279.233
279.297
278.536
277.053
275.914
275.713
276.39
277.136
277.84
278.388
278.708
278.875
278.973
279.044
279.103
279.146
279.17
279.204
279.228
279.242
279.525
278.444
276.904
275.417
274.474
274.607
275.574
276.842
277.897
278.519
278.815
278.959
279.042
279.102
279.153
279.185
279.211
279.243
279.254
280.281
279.33
278.015
276.374
274.211
272.23
271.752
273.068
275.256
277.152
278.262
278.749
278.954
279.063
279.124
279.174
279.211
279.227
279.254
279.264
280.337
279.372
277.411
275.796
273.017
270.265
269.359
270.676
273.748
276.495
278.058
278.714
278.967
279.097
279.165
279.211
279.25
279.256
279.265
279.269
280.382
279.778
276.914
275.369
272.66
269.89
268.78
270
273.46
276.508
278.136
278.776
279.011
279.133
279.207
279.247
279.279
279.286
279.282
279.275
280.234
278.021
276.349
273.768
271.561
270.924
272.469
275.253
277.426
278.504
278.912
279.07
279.163
279.229
279.266
279.293
279.326
279.303
279.294
280.385
279.825
278.399
276.819
275.688
275.515
276.328
277.528
278.417
278.853