/*--------------------------------*- C++ -*----------------------------------*\
| =========                 |                                                 |
| \\      /  F ield         | OpenFOAM: The Open Source CFD Toolbox           |
|  \\    /   O peration     | Version:  2406                                  |
|   \\  /    A nd           | Website:  www.openfoam.com                      |
|    \\/     M anipulation  |                                                 |
\*---------------------------------------------------------------------------*/
FoamFile
{
    version     2.0;
    format      ascii;
    arch        "LSB;label=32;scalar=64";
    class       volScalarField;
    location    "200";
    object      epsilon;
}
// * * * * * * * * * * * * * * * * * * * * * * * * * * * * * * * * * * * * * //

dimensions      [0 2 -3 0 0 0 0];

internalField   nonuniform List<scalar> 
238188
(
0.132674
0.433367
0.550563
0.118114
0.33941
0.430347
0.515554
0.967876
0.0578835
0.401117
0.475512
0.560824
0.938249
1.40912
0.101144
0.485517
0.860157
1.35218
0.199126
1.95386
4.13773
4.92773
0.98086
0.869049
1.50577
1.79854
2.00273
0.91573
1.55096
1.13456
1.52886
7.81034
1.30788
0.696325
1.79267
4.58158
1.87806
0.0141447
0.0097872
0.0230976
0.0601326
0.00511278
0.00385348
0.00432645
0.00520361
0.00616613
0.00838935
0.0144144
0.0397426
2.07897
0.525942
0.177147
0.0176212
0.00921462
0.00807953
0.00705628
0.00801767
0.0109697
0.0162999
0.0238103
0.0361826
0.0744824
9.67117
0.891461
0.694693
2.69451
0.94762
0.0196093
0.00868308
0.00573235
0.00784713
0.0150989
0.0262414
0.0392014
0.0417206
0.0417263
0.0776528
108.304
20.2592
103.227
44.0208
9.08532
8.90262
12.5671
0.0189944
0.00669147
0.0152957
0.0289416
0.0487048
0.0635036
0.0529598
0.0362627
0.0447623
59.7667
105.476
16.9682
1.96798
2.44268
3.95047
4.92605
0.108157
0.0184715
0.0314181
0.0488593
0.0748335
0.087514
0.0742968
0.0527637
0.0385741
0.0854947
27.645
89.2081
71.5246
3.74377
2.67583
2.12937
2.79937
4.9074
0.079767
0.0409715
0.0559061
0.0840561
0.125434
0.167376
0.201949
0.194188
0.116657
0.0658508
0.322725
16.0011
71.5529
57.2963
11.2583
9.87868
2.59672
2.89444
1.06027
0.0444076
0.0480666
0.0808721
0.149502
0.243132
0.298268
0.303591
0.285651
0.273541
0.162197
0.141953
12.7148
39.1212
48.5365
17.0339
2.53465
1.99414
0.430605
0.0732589
0.0353437
0.0459801
0.0777002
0.16778
0.28245
0.268487
0.235841
0.213749
0.208946
0.302541
0.16563
11.9851
11.1351
21.3436
37.3659
9.03724
0.147418
0.125207
0.0815686
0.0385118
0.0320833
0.0397305
0.0629343
0.198079
0.19709
0.189488
0.174501
0.174966
0.199345
0.295263
0.326518
9.20025
10.7513
14.2086
27.6347
11.6503
0.0873725
0.0645412
0.0417216
0.0288427
0.0322452
0.0347251
0.0577963
0.126528
0.162279
0.1645
0.149402
0.157715
0.187597
0.277249
0.514392
16.4519
13.8237
13.2676
19.6445
18.8323
0.0788358
0.0433778
0.0296637
0.0224693
0.0337283
0.0329608
0.0493119
0.10859
0.141614
0.137635
0.125681
0.135077
0.160457
0.243767
0.687327
19.6624
13.8729
14.5396
16.7195
4.85788
0.0370913
0.0315097
0.02402
0.0276558
0.0414248
0.0406504
0.0938695
0.11745
0.110958
0.100565
0.1083
0.129927
0.221766
0.780437
17.6405
15.7563
10.5037
14.1949
12.9388
0.22946
0.03237
0.0275517
0.0264614
0.0443382
0.0367077
0.0823436
0.107352
0.106437
0.0925528
0.102622
0.134534
0.349369
0.904408
19.1311
20.578
8.27356
9.32573
9.16798
4.8209
0.0840491
0.0285421
0.0232697
0.0357987
0.0359228
0.0813002
0.113694
0.111701
0.112444
0.200608
0.317099
0.785107
17.7819
10.4739
5.96997
7.42485
5.39961
0.91893
0.0539234
0.0233579
0.0217592
0.0278237
0.0559256
0.0900097
0.100006
0.202552
0.822607
0.863904
0.705185
30.5529
13.6101
6.4671
5.24891
3.96643
1.897
0.243903
0.0380983
0.0191892
0.020328
0.0362601
0.0535498
0.112504
0.754933
2.10874
0.821405
21.5505
8.86648
5.27938
4.02886
1.90048
0.610392
0.134574
0.0333736
0.0266308
0.0475162
0.0716289
0.353389
3.24858
1.49454
7.88048
4.3387
2.43209
1.18753
0.451808
0.137612
0.0772504
0.0858786
0.412303
3.62392
2.35777
11.1061
4.59413
2.91023
2.51498
1.61026
1.74598
5.03977
3.66053
0.00572286
0.00694391
0.00835738
0.0127772
0.0108297
0.0146429
0.0150111
0.0143528
0.0148024
0.0164881
0.0169227
0.0221577
2.93743
0.234229
0.0252296
0.0163013
0.0163325
0.0165363
0.0167944
0.018609
0.0227433
0.0271474
0.0298514
0.0349262
0.0459656
2.20959
0.245871
0.102691
0.0618381
0.0292352
0.0221957
0.0228612
0.0241637
0.0263509
0.0323846
0.0395745
0.0401599
0.0354472
0.034154
0.0560858
59.9762
15.2139
11.1588
5.43161
1.69974
0.0887645
0.0313514
0.0293665
0.0328894
0.0364022
0.0449858
0.0575454
0.0634565
0.0565398
0.044599
0.0354084
7.53079
5.15566
2.8375
2.39658
0.702675
0.104517
0.0711898
0.0335418
0.0380473
0.0458957
0.0593809
0.0726397
0.0796676
0.0805925
0.0778319
0.0699975
0.0498244
10.6856
5.10828
3.0508
2.80649
3.05794
2.06735
0.660206
0.0856339
0.0349895
0.0390462
0.0502396
0.0643771
0.0758453
0.0824057
0.0883781
0.0987224
0.115045
0.107908
0.0811808
4.97592
5.81969
3.37161
2.57649
2.64564
1.41411
0.28253
0.0516378
0.0343247
0.0384426
0.050559
0.0605988
0.0676023
0.0699404
0.0760817
0.0952183
0.137514
0.199642
0.0802117
4.66045
6.93396
4.99578
1.80916
1.15622
0.281754
0.0880445
0.0400264
0.0328528
0.0372305
0.0493285
0.056432
0.0629635
0.0648718
0.0676702
0.0791108
0.115858
0.253189
0.169611
7.93639
4.08221
7.20011
7.73325
0.68628
0.231739
0.0874534
0.0506526
0.0377141
0.0314058
0.0351383
0.0473814
0.0537945
0.0644896
0.069114
0.0697298
0.0718718
0.0885008
0.21893
0.384317
10.9922
3.37597
6.19412
9.06237
0.312653
0.0773133
0.0501743
0.0435217
0.0374492
0.0308252
0.0320488
0.0419459
0.0512713
0.0698278
0.077916
0.0748928
0.0708471
0.0790684
0.197451
0.544612
17.3517
2.7178
5.03318
8.55574
1.04513
0.0465613
0.0401699
0.0407699
0.0374652
0.0312999
0.0292035
0.0352963
0.0466616
0.0718328
0.0845844
0.0792917
0.071377
0.0779075
0.213029
0.654807
2.32485
3.80216
6.84324
5.52074
0.0647751
0.0355655
0.0373374
0.0365912
0.0320856
0.0281139
0.0301958
0.038576
0.060896
0.0761699
0.0731619
0.0673081
0.0851478
0.264489
0.693841
4.27724
2.79321
4.9785
7.02307
0.63533
0.0516993
0.0348696
0.0340376
0.0315006
0.0282473
0.0271236
0.030823
0.0445026
0.0569795
0.0587916
0.0629554
0.117624
0.368974
0.633854
11.2995
2.31757
3.45141
5.45322
3.97258
0.376468
0.0561532
0.0341524
0.0299049
0.0274861
0.0250891
0.0255653
0.0330265
0.0430496
0.0481792
0.0704889
0.210638
0.414745
6.65961
2.57221
3.65285
4.21299
2.62097
0.316345
0.0627745
0.0352743
0.0288246
0.0248598
0.0238962
0.0287039
0.0373626
0.0467995
0.129289
0.422881
0.563353
9.48704
4.89354
2.65685
3.10726
3.06202
1.64958
0.28739
0.0751194
0.0443167
0.0332066
0.0283875
0.0324146
0.0392323
0.0652086
0.46716
0.742998
8.78518
4.08022
2.61683
2.74782
1.86548
0.918967
0.302042
0.109005
0.0541181
0.0374853
0.0361108
0.0451839
0.459869
1.3523
4.52694
2.94843
2.16063
1.28858
0.718803
0.348383
0.152129
0.0921009
0.231738
0.402674
2.96813
3.88968
2.77505
1.92597
1.33131
1.00817
1.01097
2.11342
4.92781
0.00761578
0.0106496
0.0140914
0.0109787
0.0162275
0.0243616
0.0260023
0.0257355
0.0258238
0.026261
0.0247314
0.0294736
2.98908
0.258749
0.0249831
0.0253548
0.0295047
0.031908
0.034217
0.0369097
0.0347702
0.0367114
0.0382076
0.0423679
0.053047
3.10467
0.0661495
0.0344408
0.0260187
0.0296974
0.0336497
0.0378612
0.0425377
0.0470179
0.0519851
0.0552423
0.0484385
0.0441894
0.0436719
0.056176
18.3958
2.02501
0.280295
0.0311829
0.0286277
0.031598
0.0354641
0.0411298
0.0485808
0.0573164
0.0653937
0.0717836
0.0749329
0.0661878
0.0555928
0.0423014
2.99256
1.00957
0.0662796
0.0339302
0.0349656
0.0326454
0.0347421
0.0412836
0.0498579
0.0601739
0.0702089
0.0788234
0.0864515
0.0952497
0.101774
0.0836432
0.0548366
6.5456
1.66424
0.61416
0.153213
0.0403082
0.0349942
0.0319881
0.0336297
0.040216
0.0483517
0.056996
0.0635833
0.0684417
0.0764804
0.0932055
0.124239
0.15527
0.145373
0.0823725
2.86209
1.9209
0.814141
0.20901
0.039143
0.0318346
0.0304397
0.033129
0.03899
0.0459328
0.0519157
0.0535596
0.051159
0.0479912
0.0544704
0.0846557
0.172383
0.298232
0.0998961
1.41094
0.849133
0.523464
0.104373
0.0333437
0.030185
0.0308221
0.0335337
0.0378257
0.0434492
0.0473371
0.0459156
0.0418198
0.0377071
0.0378559
0.0485555
0.108328
0.352858
0.256797
6.41584
0.667084
0.395675
0.230806
0.0587568
0.0312462
0.0310951
0.0323721
0.034167
0.0365907
0.0407369
0.0428331
0.0409089
0.0382479
0.0362942
0.0362693
0.0413313
0.070471
0.226962
0.649951
9.02947
0.306309
0.217307
0.127353
0.0421242
0.0312569
0.0322675
0.0338051
0.0346173
0.0350794
0.0372936
0.0384279
0.0373224
0.0368361
0.037415
0.0388089
0.0428751
0.0678683
0.192976
0.819782
15.2019
0.200399
0.173904
0.120903
0.0362882
0.0312506
0.0326137
0.0342149
0.0344762
0.0335592
0.0337854
0.0341888
0.0340896
0.03563
0.0384595
0.0412798
0.0452473
0.0763495
0.217234
0.854839
0.42947
0.19206
0.13216
0.0366234
0.0311607
0.0320497
0.0334834
0.0337185
0.0322613
0.0310291
0.0306482
0.0309017
0.0333437
0.0368969
0.0395305
0.0431738
0.0639566
0.293617
0.836145
4.07242
0.227405
0.13475
0.059085
0.0355758
0.032296
0.032576
0.0327292
0.0313714
0.0294291
0.0283634
0.0284003
0.0302402
0.0328126
0.0347454
0.043583
0.083947
0.444838
0.702499
8.97874
0.97538
0.223605
0.120972
0.0646454
0.0425113
0.0358975
0.0336284
0.031565
0.0291016
0.0272796
0.0268383
0.0276653
0.0290207
0.0310197
0.0409849
0.180607
0.558133
3.35791
0.808601
0.295234
0.227726
0.119604
0.0661819
0.0468927
0.0381048
0.0327665
0.0291215
0.0271801
0.0268282
0.0278354
0.0305195
0.0845138
0.483467
0.727237
4.19793
1.94981
0.845347
0.737364
0.646772
0.298678
0.129591
0.0704093
0.0486882
0.038925
0.0333274
0.030193
0.0300407
0.0488312
0.405
0.941954
2.9697
1.54481
1.10965
1.21256
0.937675
0.440586
0.225173
0.124365
0.0762186
0.0556371
0.0384076
0.0435368
0.496516
1.32196
1.69657
1.69867
1.42412
0.900626
0.494035
0.273349
0.156225
0.116354
0.23052
0.463865
2.62508
2.24153
1.90478
1.32708
0.882038
0.671033
0.852676
2.52287
5.00523
0.00784205
0.0116839
0.0164723
0.0194137
0.0194602
0.0323994
0.0355999
0.0354926
0.0359893
0.0362163
0.0328176
0.033816
3.14448
0.262164
0.0314805
0.0325213
0.0351502
0.0375862
0.0400346
0.0425591
0.0423073
0.0443272
0.0451259
0.043768
0.0501854
4.01161
0.0719889
0.0383527
0.0299514
0.033041
0.0364818
0.0400944
0.0437733
0.0472675
0.0507958
0.0536056
0.0511642
0.0481258
0.0462282
0.0465603
21.1472
0.0592388
0.0348583
0.029589
0.0301529
0.0323328
0.0352337
0.0390897
0.0440745
0.0502512
0.056625
0.0624894
0.0666331
0.0632776
0.0561329
0.0468163
1.13837
0.0426732
0.0312433
0.0298915
0.0296318
0.0305158
0.032962
0.0369843
0.0425373
0.0498766
0.0581285
0.0669321
0.0753907
0.0845986
0.0899436
0.078899
0.0522814
6.55399
0.232201
0.0394326
0.0330206
0.0297021
0.0288795
0.0294086
0.0316212
0.0356348
0.040966
0.0471069
0.0525807
0.0583127
0.0674328
0.0834624
0.109697
0.140217
0.132337
0.0811638
2.22065
0.130372
0.0442043
0.0337978
0.0291874
0.0286624
0.0293502
0.031496
0.0349584
0.0390965
0.0424973
0.0428722
0.0409899
0.0409862
0.0484941
0.0757715
0.152858
0.265856
0.104399
0.577059
0.0644361
0.0412823
0.0318045
0.0289864
0.0293249
0.0304573
0.0323985
0.03498
0.037831
0.0389681
0.036727
0.0328582
0.0297791
0.0310769
0.0406635
0.0904717
0.301474
0.278954
5.71415
0.242486
0.0486432
0.0355278
0.030339
0.02971
0.0305631
0.0319471
0.0335927
0.0352208
0.0367173
0.0365791
0.033984
0.0306518
0.0282812
0.0282702
0.0331589
0.0582022
0.186183
0.642171
8.24339
0.116894
0.0394786
0.0328087
0.030412
0.0306888
0.0315585
0.0330179
0.0342593
0.0348949
0.0352952
0.0345694
0.0323675
0.0300235
0.0287628
0.0293473
0.0338137
0.055922
0.154376
0.762702
13.8421
0.0778726
0.0346344
0.0322658
0.0311262
0.0314624
0.0319824
0.0331584
0.0339437
0.0338223
0.0333396
0.0323158
0.0306295
0.0293054
0.029274
0.0310007
0.0361219
0.0647644
0.178775
0.787777
0.211456
0.0354929
0.032578
0.0319109
0.031949
0.0318859
0.0324926
0.0328503
0.0322495
0.031152
0.0299385
0.0287177
0.0282048
0.0290425
0.031165
0.0367636
0.0551239
0.260853
0.806781
4.67584
0.0769362
0.0357669
0.0344595
0.0331861
0.0320417
0.0317992
0.0316642
0.0307947
0.0293774
0.0280722
0.0272342
0.0273092
0.0285815
0.0310764
0.0411736
0.0754796
0.411804
0.742205
8.40064
1.0487
0.103666
0.0617503
0.0462234
0.0379288
0.0341023
0.0321721
0.0305744
0.0287176
0.0271465
0.0263997
0.0266808
0.0281377
0.0319316
0.0401646
0.162747
0.535487
3.22899
0.948615
0.326513
0.148531
0.080275
0.0525128
0.0410053
0.0353414
0.0314561
0.0286173
0.0270631
0.0268718
0.0284606
0.0316799
0.0857918
0.450013
0.727771
3.70732
1.48962
0.670613
0.315481
0.186773
0.104107
0.0699283
0.0525749
0.04222
0.0357075
0.0317646
0.0295614
0.0301972
0.0687188
0.40417
0.905849
1.48757
0.760966
0.474565
0.40674
0.284729
0.174693
0.115492
0.082728
0.0616062
0.0512337
0.0399367
0.078274
0.676957
1.12161
0.961907
0.87608
0.803997
0.522179
0.296963
0.180915
0.119257
0.102795
0.425651
1.2171
1.66257
1.51827
1.11857
0.820234
0.581022
0.488252
0.836206
2.74447
2.91531
0.00890689
0.0120701
0.0168228
0.0271024
0.0216473
0.0299581
0.0364159
0.0386334
0.0397183
0.0398072
0.0343828
0.0323312
2.95935
0.241277
0.0307535
0.0324772
0.0387618
0.0422466
0.0450299
0.0472021
0.0479778
0.0508629
0.0524442
0.045586
0.0418965
3.19402
0.0874356
0.041762
0.0333072
0.0355125
0.0382257
0.0411091
0.0438434
0.046636
0.0493768
0.0521263
0.0532961
0.0529594
0.0490368
0.0371932
22.0377
0.0609823
0.0404615
0.0326197
0.0318669
0.0324122
0.0336669
0.0353533
0.0376219
0.0413218
0.0463246
0.0518051
0.0566222
0.0571047
0.0534912
0.0456232
0.654148
0.0390918
0.03301
0.0310838
0.0299135
0.0294591
0.0299429
0.031498
0.0343408
0.0390777
0.0453633
0.0530469
0.0610938
0.068785
0.0728191
0.0648504
0.0455967
11.2258
0.0892175
0.0352243
0.032218
0.0304796
0.0292416
0.0286233
0.0290224
0.0307668
0.0338566
0.0382975
0.0433883
0.0495354
0.058098
0.0717855
0.0908495
0.108385
0.0980848
0.0786983
5.06522
0.0811603
0.0340224
0.0317283
0.0305505
0.0297472
0.0294237
0.0299613
0.0313905
0.0332236
0.0346271
0.0342458
0.0336934
0.0365878
0.0455499
0.070453
0.131615
0.198645
0.086117
0.7646
0.0428728
0.0326353
0.0312303
0.0308956
0.0306018
0.0308412
0.0317349
0.0327716
0.0331453
0.0321208
0.0294304
0.0266338
0.0256428
0.0278076
0.036963
0.0834394
0.248433
0.208022
8.64029
0.223172
0.0371672
0.031619
0.0313864
0.0315129
0.0314496
0.0321472
0.0334136
0.0341011
0.0335463
0.0316388
0.0286182
0.0257058
0.0239365
0.0243522
0.0289876
0.0518856
0.160157
0.502127
11.1506
0.0987102
0.0340191
0.0317288
0.0324037
0.0323308
0.0320449
0.032973
0.0342755
0.034643
0.0337261
0.0316574
0.0288144
0.0261953
0.0246067
0.0249137
0.0290055
0.0492173
0.131037
0.635283
16.0836
0.0655654
0.0320684
0.0325626
0.0337971
0.0331553
0.0324157
0.033056
0.0340071
0.0340537
0.0329462
0.0309314
0.0284676
0.0264135
0.0254466
0.0263246
0.0314939
0.0585709
0.1542
0.688894
0.15322
0.0305153
0.0335192
0.0351836
0.0340482
0.032629
0.0324907
0.0328064
0.0324651
0.0311913
0.0293229
0.0273909
0.0260702
0.0258828
0.0275542
0.0347411
0.0526513
0.235866
0.756286
4.15318
0.0474363
0.0364713
0.0374251
0.0357195
0.0333002
0.0319865
0.0314191
0.0306172
0.0292139
0.0275819
0.0262313
0.0256679
0.0262802
0.0293
0.0438509
0.0805636
0.379809
0.758616
8.80666
0.614103
0.0674702
0.0534114
0.0454438
0.0384227
0.0341319
0.0316906
0.0299747
0.0282229
0.0265745
0.0255236
0.0254665
0.0269755
0.0335007
0.0450574
0.182005
0.489005
3.21843
0.693573
0.23467
0.135192
0.0773895
0.0515956
0.0397899
0.0339859
0.0303209
0.027663
0.0260931
0.0260326
0.0296581
0.0359305
0.11311
0.426827
0.620525
3.55826
1.71494
0.790467
0.335527
0.182275
0.103709
0.066531
0.048586
0.0391865
0.0333051
0.0297305
0.0293486
0.0333328
0.118194
0.435261
0.701522
2.17644
0.900244
0.411578
0.228242
0.132866
0.0921931
0.0708838
0.057659
0.0480668
0.0425071
0.0406117
0.230915
0.748077
0.834876
0.770522
0.467321
0.37207
0.247396
0.158036
0.111245
0.0856114
0.112973
0.763293
1.27505
0.930347
1.25989
0.855508
0.61206
0.450174
0.429943
0.941821
2.19872
1.13892
0.0121479
0.0129349
0.0169517
0.0326739
0.0240441
0.0267519
0.0331489
0.0388863
0.0418333
0.0424432
0.0353999
0.0312661
2.40738
0.220678
0.0343205
0.0347826
0.0422089
0.0461606
0.0495959
0.0517339
0.0532234
0.0563914
0.0580362
0.0467491
0.0365077
2.35506
0.112173
0.0514107
0.037649
0.0380939
0.0394649
0.0413173
0.043266
0.0455648
0.0482096
0.0514699
0.0572507
0.0596029
0.0543897
0.0343236
14.3482
0.0770647
0.0496349
0.036134
0.0337466
0.0328538
0.0324129
0.0322099
0.0324771
0.0341481
0.0379788
0.0432578
0.0486626
0.0539114
0.0531927
0.0468449
0.568206
0.0447873
0.0357712
0.0330831
0.031074
0.029512
0.0283868
0.0280595
0.0290503
0.0318874
0.0364418
0.0424366
0.0489103
0.0547625
0.0578807
0.0539284
0.0377385
19.0041
0.0708922
0.0369756
0.0342902
0.0324962
0.0307285
0.0291287
0.0281885
0.0284241
0.0301937
0.0335209
0.0381348
0.0433888
0.0505322
0.0605433
0.0718767
0.0793584
0.0695754
0.0557377
8.71942
0.0717967
0.0355755
0.0340808
0.0328123
0.031231
0.0300142
0.0296543
0.0299925
0.0304961
0.0305388
0.0297143
0.0305151
0.0345065
0.0442312
0.0651117
0.108192
0.135509
0.0607586
1.7427
0.0458671
0.0349864
0.0342668
0.033195
0.0317459
0.0311869
0.0316629
0.0320544
0.0311065
0.0288582
0.025965
0.0240514
0.0240117
0.0264876
0.0353684
0.0814035
0.197338
0.128239
14.6868
0.41795
0.0417581
0.035223
0.0349757
0.0337377
0.0324122
0.0325148
0.0335889
0.0338796
0.0323649
0.0295842
0.026346
0.0236309
0.0222073
0.0226658
0.027094
0.0493326
0.146755
0.334886
16.5545
0.147202
0.0402732
0.0366032
0.0363413
0.0345842
0.0332127
0.0337241
0.0348777
0.0349974
0.033457
0.0306999
0.0274446
0.0245432
0.02276
0.022838
0.0267925
0.0465511
0.12022
0.49882
19.7199
0.0929146
0.0399267
0.0386181
0.0380119
0.0354988
0.03393
0.0342966
0.0350809
0.0349692
0.0334129
0.0307252
0.0276308
0.0249603
0.0234785
0.0240271
0.0295253
0.0561491
0.140952
0.573013
0.249717
0.0384031
0.040804
0.039798
0.0366888
0.0344634
0.0340356
0.034139
0.0336436
0.0319738
0.0293945
0.0267018
0.0247256
0.0239986
0.02571
0.0349633
0.0529503
0.215942
0.651418
4.33218
0.0622208
0.0465813
0.0431229
0.0388237
0.0353189
0.0335233
0.0326059
0.0315364
0.0297351
0.0275072
0.0254954
0.0243085
0.024599
0.0287482
0.0491024
0.0886857
0.339973
0.680917
8.39678
0.600693
0.079222
0.054695
0.0455828
0.0388643
0.0346507
0.0320967
0.0302104
0.028269
0.0262488
0.0246719
0.0241622
0.0261909
0.036834
0.0536687
0.199879
0.425006
3.01554
0.408034
0.124862
0.0873893
0.0602982
0.0458429
0.0377356
0.0329698
0.0296289
0.0269698
0.0251516
0.0253251
0.0329522
0.0437341
0.151979
0.373051
0.50494
3.66825
1.57682
0.720985
0.289019
0.156339
0.0929881
0.0619504
0.0462535
0.0375771
0.0320816
0.0286087
0.0327666
0.043076
0.18435
0.421321
0.487171
2.17366
1.34509
0.584113
0.263862
0.13192
0.084128
0.0625985
0.0502018
0.0420806
0.0376542
0.0480014
0.373646
0.659887
0.561447
1.35006
0.6818
0.314916
0.167139
0.109251
0.0818848
0.0711922
0.141832
0.8662
0.964138
0.56181
1.18374
0.963552
0.741022
0.579738
0.590831
0.963271
1.23043
0.537181
0.0177759
0.0156586
0.0177811
0.0349318
0.0289713
0.029152
0.032312
0.0375574
0.0424883
0.0449011
0.038231
0.0340079
1.73998
0.21249
0.0438831
0.040785
0.0454856
0.048327
0.0516518
0.0540157
0.05718
0.0610424
0.0642484
0.0529099
0.0392941
1.83788
0.142455
0.0679201
0.0404991
0.0391078
0.0394749
0.0400146
0.0408884
0.0422589
0.0443682
0.0472197
0.0572068
0.0622626
0.060359
0.0367067
8.5758
0.0995934
0.0623231
0.0392794
0.0348129
0.0330159
0.0315282
0.0299801
0.0289272
0.029057
0.0311433
0.0350007
0.0395344
0.0486114
0.0519837
0.0509746
0.531574
0.0532105
0.0390243
0.0351108
0.0324232
0.0302467
0.0280449
0.0264961
0.0263742
0.0280129
0.0311119
0.0350485
0.0389782
0.0424133
0.0445324
0.0450368
0.033556
18.4738
0.0775738
0.0400508
0.0368904
0.0346302
0.032298
0.0299029
0.0281326
0.0276165
0.0287213
0.0313994
0.0353195
0.0393153
0.0445126
0.0502266
0.0551726
0.0559845
0.0484732
0.0412422
11.939
0.0664955
0.03885
0.0371546
0.0351558
0.0324638
0.0303104
0.0295024
0.0295664
0.0296147
0.0290757
0.0281825
0.0295848
0.0338854
0.0428682
0.0586682
0.0837627
0.0879691
0.0456319
3.52758
0.0533798
0.0394875
0.0381606
0.03582
0.0329711
0.0316253
0.0318477
0.0320716
0.0307876
0.0282013
0.025398
0.0238261
0.0238353
0.0262889
0.0353366
0.0788943
0.144831
0.0763702
20.4423
0.978507
0.0513888
0.0409623
0.0394422
0.036682
0.0342501
0.0338362
0.0345244
0.0345252
0.0327707
0.0298091
0.0264398
0.0236442
0.0220461
0.0223644
0.0267444
0.0492386
0.139453
0.189761
21.5816
0.311332
0.0523237
0.0434191
0.0409981
0.0379013
0.0359948
0.0361383
0.0368107
0.0365901
0.0347762
0.0316794
0.0279791
0.0246495
0.0224755
0.0223171
0.0264096
0.0463443
0.114638
0.344151
22.1982
0.193803
0.0548584
0.0463859
0.0426185
0.039067
0.037365
0.0375213
0.0379529
0.0375434
0.0356015
0.0323296
0.0284621
0.0250921
0.0230232
0.0233871
0.0295534
0.0557213
0.132366
0.420848
0.505298
0.0559959
0.0496491
0.0444894
0.0403054
0.0381734
0.0377574
0.0376126
0.0368532
0.0347159
0.0313531
0.0276195
0.0247891
0.023474
0.0253838
0.0368266
0.0542644
0.195652
0.481968
4.854
0.110897
0.0584306
0.0483569
0.0423073
0.0388646
0.0372341
0.0361317
0.0347297
0.0323593
0.0291751
0.0261836
0.0241824
0.0241781
0.0296767
0.0550744
0.0940535
0.289272
0.51012
7.71972
0.672809
0.09823
0.058416
0.0474289
0.0411611
0.0374532
0.0349051
0.0325713
0.0300781
0.0273415
0.0249984
0.0239917
0.0267716
0.0417792
0.0638861
0.197234
0.343688
2.71281
0.324952
0.0972516
0.0662882
0.0518039
0.0430697
0.0374704
0.0334932
0.0302363
0.0273449
0.025221
0.0260375
0.0378937
0.0536552
0.179416
0.299602
0.394352
3.45086
1.1561
0.353412
0.174227
0.107491
0.0728925
0.0541477
0.0432651
0.0364042
0.0316768
0.028743
0.0387065
0.05595
0.224987
0.356986
0.337353
2.06126
1.06588
0.470359
0.221806
0.116303
0.0797676
0.0606923
0.0494586
0.0425838
0.0379961
0.0634845
0.394493
0.516687
0.385395
1.06029
0.647628
0.38305
0.218978
0.138297
0.104508
0.0994883
0.204323
0.683655
0.672166
0.38127
0.840509
0.691496
0.605496
0.527279
0.473617
0.394814
0.4211
0.318064
0.0251344
0.021136
0.0205495
0.0327984
0.038196
0.0375226
0.0373339
0.038241
0.040816
0.043114
0.0374843
0.0349911
1.16137
0.21097
0.0561869
0.044843
0.0460156
0.0482054
0.0509543
0.0532896
0.0577053
0.0612073
0.0641481
0.0550116
0.0430446
1.51357
0.167542
0.089598
0.042848
0.0383671
0.0379248
0.0376798
0.0377759
0.0384367
0.0397339
0.0414764
0.0508037
0.0557981
0.0596441
0.0397797
5.57965
0.129787
0.0798921
0.0444216
0.0366859
0.0338225
0.0314947
0.0289272
0.0270816
0.0265131
0.0274472
0.0294669
0.0318321
0.0380457
0.0429447
0.0480013
0.615516
0.0679516
0.0452041
0.0387948
0.034931
0.0319135
0.0286912
0.0261693
0.0253457
0.0263286
0.028467
0.0307134
0.032375
0.0334625
0.0341579
0.0349266
0.0313866
13.8273
0.104825
0.0467768
0.0416101
0.0381155
0.0346163
0.0309502
0.0282208
0.0271896
0.0279394
0.0301789
0.0331781
0.0363045
0.0395631
0.0417677
0.0427615
0.039892
0.0351619
0.0434726
9.6084
0.0737859
0.0449675
0.0420703
0.0388031
0.0344957
0.0309993
0.0295085
0.0294539
0.0294792
0.0289179
0.0283668
0.029543
0.0333897
0.0406324
0.0511478
0.0623493
0.057256
0.035574
5.28785
0.0687209
0.0468426
0.0437805
0.0397732
0.0355079
0.0332046
0.0328161
0.0327877
0.0316796
0.0292537
0.0265252
0.0245937
0.0242402
0.0264887
0.0365094
0.0703903
0.0984857
0.0480547
22.096
2.10027
0.0725368
0.0494415
0.0453922
0.0411345
0.0379358
0.0368113
0.0367495
0.0364506
0.0347512
0.0317729
0.0280789
0.0247627
0.0227036
0.0227521
0.0270648
0.0504017
0.124895
0.0967739
23.3762
0.781739
0.0768079
0.0523236
0.0467883
0.0428764
0.0408315
0.0403568
0.0403652
0.0398609
0.0378505
0.0343532
0.0300477
0.0260167
0.0232605
0.0228159
0.0270026
0.0466047
0.1081
0.196132
21.7941
0.47721
0.0819926
0.0553022
0.047974
0.0442907
0.0428357
0.042554
0.0425326
0.0418899
0.0396146
0.0357021
0.0309954
0.0267089
0.0239067
0.0240084
0.0305154
0.0549548
0.121712
0.264405
0.949308
0.0886181
0.058594
0.0493535
0.0452972
0.0437522
0.0432975
0.0429489
0.0419475
0.0394693
0.0353356
0.0305639
0.0265189
0.0244092
0.0262999
0.0387182
0.0547245
0.169958
0.304223
4.87641
0.154281
0.0677771
0.0530998
0.0469057
0.0441881
0.0428846
0.0417886
0.0401513
0.0373257
0.0331344
0.0289101
0.0257622
0.025248
0.0314296
0.0580713
0.0926688
0.230126
0.324711
6.95246
0.619175
0.104252
0.0628762
0.0513881
0.0458721
0.0427289
0.0402836
0.0375695
0.0342715
0.0306336
0.0272339
0.025489
0.0284784
0.045398
0.0701972
0.175151
0.260071
2.43507
0.312508
0.0975686
0.0647839
0.0525695
0.0455157
0.0406787
0.0366923
0.0329824
0.0295274
0.0268973
0.0281123
0.0413797
0.0600934
0.177665
0.232741
0.291677
3.07897
1.0018
0.247289
0.120916
0.0828991
0.0625685
0.0506138
0.0426283
0.0368486
0.0326732
0.0307042
0.0437531
0.0629733
0.215474
0.285625
0.246606
1.96493
0.799813
0.295917
0.149532
0.0907809
0.0709764
0.0579427
0.050605
0.0513906
0.0455253
0.0782654
0.319377
0.38488
0.282167
0.930505
0.47093
0.281647
0.187755
0.147923
0.137484
0.15251
0.19375
0.386907
0.426749
0.268534
0.804164
0.552657
0.392491
0.286315
0.1896
0.132493
0.16057
0.216476
0.0338691
0.0300283
0.0268259
0.0282935
0.0495486
0.0471945
0.0442095
0.0439054
0.0432362
0.0422499
0.0353924
0.0334736
0.777938
0.213975
0.0677215
0.0467531
0.0431572
0.0447907
0.0475206
0.0502449
0.0570515
0.0592109
0.0596901
0.0488388
0.0386737
1.30089
0.181786
0.103625
0.0458978
0.038151
0.0367238
0.0357575
0.0353031
0.0359221
0.0371351
0.0390555
0.0462977
0.0489659
0.0496095
0.0340122
3.95627
0.168523
0.0948885
0.0512102
0.0403441
0.0365918
0.0334654
0.0297597
0.0270679
0.0261841
0.0269537
0.0284028
0.0300517
0.0331557
0.0358129
0.0374228
0.806774
0.0871602
0.0537502
0.0445722
0.0393199
0.0350408
0.030322
0.026542
0.0249227
0.025366
0.0269901
0.028527
0.0294161
0.0298597
0.0302867
0.029484
0.0307708
9.87962
0.154875
0.0567838
0.0489583
0.0439648
0.0387521
0.0330055
0.0286335
0.0267432
0.027084
0.0288615
0.0310873
0.0334115
0.0352395
0.0356928
0.0355035
0.0329985
0.0267718
0.026049
6.89104
0.0987922
0.0540856
0.0495492
0.0448071
0.0383797
0.0329808
0.0302634
0.0297531
0.0298217
0.0294605
0.0289501
0.029541
0.0322453
0.0373121
0.0433923
0.0470731
0.0391803
0.0241388
5.98037
0.0925546
0.0565908
0.0513949
0.0458102
0.039933
0.0363843
0.0349959
0.0345633
0.0335925
0.0314213
0.0285349
0.0259904
0.0249113
0.0266365
0.0360774
0.0589563
0.0646357
0.0319973
20.0275
3.68348
0.106723
0.0594892
0.0526609
0.0474688
0.0434568
0.0414238
0.0404729
0.039805
0.0381175
0.0348973
0.0308157
0.0267578
0.0239146
0.023308
0.0270527
0.0512588
0.0973738
0.0518054
23.2744
1.67008
0.114691
0.0617843
0.0534773
0.0495448
0.0471401
0.0459573
0.0453288
0.0444914
0.0421408
0.0382604
0.0333612
0.0284472
0.0248555
0.0238038
0.0274699
0.0457338
0.0976704
0.0969952
20.3961
0.933637
0.12007
0.0641191
0.054026
0.0509204
0.0494166
0.0487177
0.0483116
0.0473535
0.0447027
0.0404029
0.0349407
0.0295538
0.0258371
0.0252991
0.0311233
0.0523189
0.106522
0.14526
1.09445
0.134099
0.067075
0.0546769
0.0513991
0.0501829
0.0495844
0.0490712
0.047909
0.045198
0.0406941
0.0349816
0.0296452
0.0265578
0.0277527
0.0389311
0.0523856
0.138881
0.170786
4.40526
0.198478
0.0786295
0.0588584
0.0527455
0.0504758
0.0492473
0.0481406
0.0465431
0.0436119
0.0389212
0.0334147
0.0289562
0.0275233
0.03287
0.0559857
0.0836219
0.171105
0.185014
5.87647
0.709031
0.123119
0.0694561
0.0574993
0.0523271
0.0493919
0.0470027
0.0443112
0.0405497
0.0359788
0.03135
0.028588
0.0308114
0.0459078
0.0686024
0.144417
0.186069
2.26242
0.322056
0.102269
0.0697455
0.0585814
0.0520178
0.0470363
0.0425897
0.0382157
0.0339437
0.0304626
0.0313976
0.0430932
0.0598866
0.153851
0.178603
0.200598
2.89222
0.885218
0.222082
0.113926
0.0812915
0.0640802
0.0536018
0.0460244
0.0400674
0.036245
0.0347089
0.0479088
0.0632464
0.177303
0.222505
0.18352
1.86219
0.690729
0.240344
0.12426
0.0815692
0.0668394
0.0568455
0.0525005
0.0565418
0.0534171
0.0838319
0.220988
0.268023
0.207891
0.861735
0.367316
0.198829
0.134433
0.115815
0.121606
0.125661
0.12457
0.186777
0.238671
0.182526
0.841616
0.523453
0.316681
0.203044
0.1214
0.0791239
0.0934896
0.157474
0.0418948
0.0404223
0.0362588
0.0229062
0.0567286
0.0526659
0.0465263
0.0468245
0.0481823
0.0468763
0.0373478
0.0319822
0.611292
0.200259
0.0689159
0.0464433
0.0396239
0.0402645
0.0420747
0.0447606
0.0541666
0.0586304
0.0573636
0.0432608
0.0347023
1.10643
0.17667
0.0981673
0.047905
0.0391492
0.0376044
0.0362026
0.0349219
0.0348535
0.036367
0.039347
0.046051
0.0480418
0.0429827
0.0327701
2.85388
0.199114
0.0978993
0.056552
0.0451907
0.0413926
0.0378622
0.0328946
0.0289053
0.0272911
0.0277712
0.0295188
0.0319842
0.0364131
0.0392159
0.0364471
0.994744
0.103818
0.0609792
0.0518929
0.0460516
0.0402588
0.0334601
0.0277765
0.0249448
0.0246674
0.0256863
0.0269374
0.0279526
0.028969
0.0301682
0.0278011
0.0167678
6.94543
0.207962
0.0668961
0.0576788
0.0526025
0.045543
0.0369962
0.0301755
0.0267298
0.0263056
0.0274487
0.0289252
0.0304163
0.0313578
0.0313185
0.0312567
0.0299995
0.0216403
0.0143071
5.4867
0.130191
0.0645638
0.0590737
0.0533946
0.0445708
0.0367439
0.0322686
0.0308321
0.0307343
0.030265
0.0296275
0.029476
0.0306579
0.0335459
0.0368579
0.0375478
0.0300073
0.0157638
5.1648
0.117879
0.0667765
0.0603901
0.0537927
0.0462946
0.0411427
0.0385738
0.0375138
0.0361639
0.0339692
0.0311789
0.0281391
0.0260121
0.0264676
0.0337788
0.0481716
0.0437195
0.0224216
15.5462
5.08412
0.141291
0.0688334
0.0606745
0.0552398
0.0504098
0.0473067
0.0455943
0.0443386
0.0421304
0.0388046
0.0345397
0.0298144
0.0258368
0.0238049
0.0263497
0.0487319
0.0685652
0.0332275
20.3964
3.08408
0.156761
0.0704618
0.0606889
0.057079
0.0542827
0.0524313
0.0512764
0.0499483
0.0472785
0.0431579
0.0378632
0.0320979
0.0272866
0.0248498
0.0268946
0.0436199
0.0818727
0.0505331
17.538
1.82274
0.168359
0.0729345
0.0605895
0.0579265
0.0563611
0.0552601
0.0544821
0.0531938
0.0504436
0.0459834
0.040051
0.0336136
0.0285994
0.026726
0.0306533
0.0484097
0.0870084
0.0762466
1.70333
0.201953
0.0770745
0.0608581
0.057799
0.0566284
0.0557464
0.055054
0.053882
0.0512615
0.0467515
0.0404436
0.0338477
0.0295465
0.0293291
0.0376837
0.0477373
0.105898
0.0923004
4.10485
0.310236
0.0935586
0.0665563
0.0593076
0.0567092
0.0551147
0.0539398
0.0526569
0.0500478
0.0453453
0.0388656
0.0331845
0.0306504
0.0342852
0.0517765