/*--------------------------------*- C++ -*----------------------------------*\
| =========                 |                                                 |
| \\      /  F ield         | OpenFOAM: The Open Source CFD Toolbox           |
|  \\    /   O peration     | Version:  2406                                  |
|   \\  /    A nd           | Website:  www.openfoam.com                      |
|    \\/     M anipulation  |                                                 |
\*---------------------------------------------------------------------------*/
FoamFile
{
    version     2.0;
    format      ascii;
    arch        "LSB;label=32;scalar=64";
    class       volScalarField;
    location    "200";
    object      k;
}
// * * * * * * * * * * * * * * * * * * * * * * * * * * * * * * * * * * * * * //

dimensions      [0 2 -2 0 0 0 0];

internalField   nonuniform List<scalar> 
238188
(
0.0895935
0.0768223
0.0987527
0.0979453
0.0666974
0.0832975
0.0873156
0.166194
0.0978726
0.0711154
0.091327
0.0936715
0.146959
0.18908
0.0708464
0.0850763
0.140136
0.220603
0.0957153
0.928038
0.572472
0.977182
0.312763
0.207772
0.314389
0.346999
0.522951
0.217176
0.257595
0.234815
0.282398
1.99294
0.454101
0.171157
0.265958
1.51728
0.419737
0.0230561
0.0200427
0.0330612
0.0866138
0.0172067
0.0197911
0.0251466
0.0280889
0.0278799
0.029957
0.0383926
0.060176
0.764428
0.517806
0.259402
0.061503
0.0609882
0.052065
0.0405641
0.0391436
0.0457298
0.0585644
0.071953
0.0804254
0.0930086
1.95124
0.77315
0.602577
1.11383
0.40916
0.0990344
0.0560833
0.0323889
0.0333331
0.0518071
0.0768747
0.0997596
0.0975533
0.0833203
0.0910698
10.4845
5.27268
14.6428
5.91925
1.61465
1.42645
1.62956
0.0811712
0.030337
0.0518669
0.0860988
0.119842
0.134291
0.105215
0.0682535
0.0619605
11.796
15.2897
2.75876
0.564063
0.642701
0.913226
1.0638
0.134321
0.0641053
0.105669
0.136434
0.164217
0.161129
0.123553
0.0831757
0.0551077
0.0722265
4.77299
17.3679
11.3028
1.00039
0.778264
0.586583
0.676141
0.990009
0.163721
0.149428
0.178571
0.207882
0.251443
0.289051
0.324797
0.297052
0.167337
0.0745611
0.146472
4.45261
16.466
10.5193
3.16811
2.95296
0.881947
0.881152
0.419057
0.168348
0.190166
0.228125
0.334461
0.496669
0.604732
0.656026
0.632489
0.485386
0.218554
0.0912105
4.29918
11.587
10.8601
4.73685
1.18609
0.9115
0.314248
0.176238
0.161868
0.188061
0.202753
0.351706
0.567551
0.668898
0.699354
0.673413
0.59771
0.476697
0.156094
2.79245
4.2707
7.94474
10.4468
2.93388
0.222318
0.206556
0.186271
0.151636
0.153679
0.170542
0.150145
0.386901
0.584414
0.671054
0.674295
0.670956
0.670547
0.644148
0.334786
2.88885
4.50301
6.1965
9.44562
3.92371
0.180129
0.173257
0.136049
0.131527
0.145515
0.16215
0.144315
0.400241
0.602441
0.661782
0.640248
0.651191
0.67939
0.699631
0.551373
2.84566
5.55195
6.08739
8.03892
6.42923
0.172423
0.163438
0.123208
0.112513
0.124155
0.155012
0.146703
0.395806
0.564275
0.591086
0.574625
0.592949
0.622116
0.653432
0.636837
6.82613
6.31016
6.81275
6.58374
2.40571
0.173044
0.16508
0.128978
0.0959514
0.134581
0.158715
0.319672
0.470161
0.48141
0.477533
0.502903
0.527074
0.552644
0.620342
5.50013
6.78387
5.55774
6.34454
5.49331
0.303088
0.192715
0.170563
0.126166
0.0952586
0.14962
0.273579
0.408567
0.432559
0.418419
0.432518
0.444676
0.485886
0.580596
4.55129
7.72341
4.69796
4.99049
4.44937
2.6983
0.215979
0.175467
0.147634
0.122536
0.126147
0.271398
0.408024
0.429412
0.416751
0.45297
0.447554
0.567349
5.76622
5.1963
3.83395
3.98097
3.01505
0.78592
0.165069
0.136698
0.123779
0.102393
0.212783
0.341933
0.380676
0.48358
0.876849
0.707927
0.514576
6.55536
5.10855
3.81175
3.33415
2.45615
1.36965
0.292465
0.108905
0.105687
0.0933754
0.144981
0.218002
0.339957
0.870257
1.51818
0.650281
5.22136
3.66682
3.14479
2.64362
1.4173
0.577207
0.18124
0.0998305
0.113316
0.161907
0.216904
0.501212
2.00616
0.982037
2.88804
2.32391
1.74195
1.00035
0.464
0.204667
0.189621
0.228819
0.483135
1.99342
1.25679
3.08829
2.04649
1.65484
1.46677
1.11563
1.18242
2.30491
1.58153
0.0381302
0.0444022
0.0510928
0.0469788
0.0771273
0.105133
0.105908
0.0969221
0.0920596
0.0924357
0.0845876
0.0898607
1.59765
0.254757
0.119835
0.125683
0.126689
0.123265
0.115024
0.111489
0.118672
0.126063
0.12621
0.125561
0.125324
0.964133
0.225027
0.149972
0.151748
0.163692
0.168965
0.166914
0.162244
0.15435
0.160889
0.17397
0.163334
0.136558
0.11154
0.114191
11.3497
3.79638
2.77726
1.50509
0.548826
0.239593
0.21963
0.209843
0.21763
0.214018
0.222802
0.249501
0.253664
0.216648
0.159422
0.103601
2.04522
1.43837
1.04566
0.914826
0.447809
0.335143
0.325505
0.24354
0.257899
0.276646
0.31193
0.350565
0.363085
0.342934
0.295351
0.223836
0.111133
2.86695
1.53921
1.07405
1.09664
1.16367
0.94022
0.552721
0.339347
0.264788
0.279401
0.319544
0.372456
0.420423
0.444755
0.447923
0.438661
0.40659
0.278283
0.107174
1.79652
1.96615
1.32404
1.15364
1.16037
0.802364
0.372761
0.300505
0.275501
0.290523
0.3396
0.387567
0.432252
0.458801
0.482419
0.519089
0.561624
0.544364
0.1525
2.12079
2.74721
1.97474
1.03931
0.736625
0.340584
0.285576
0.293573
0.278884
0.293735
0.339595
0.380581
0.43071
0.467394
0.499192
0.537129
0.601547
0.744514
0.345197
3.17515
2.25178
3.30719
3.06134
0.575308
0.311532
0.262644
0.287445
0.302526
0.280678
0.289113
0.320453
0.361775
0.438321
0.497694
0.529098
0.542313
0.571882
0.774994
0.747914
4.34249
2.19823
3.30471
3.96298
0.374099
0.246711
0.274107
0.308979
0.313918
0.284597
0.278407
0.287082
0.339707
0.460621
0.540078
0.555646
0.543578
0.54472
0.726545
1.02446
6.17056
2.07082
3.11854
4.28868
0.792262
0.254422
0.292006
0.323063
0.32099
0.289752
0.268447
0.262143
0.313774
0.467666
0.563817
0.564613
0.531833
0.515643
0.70148
1.11217
2.03136
2.74093
4.01809
3.10929
0.281435
0.297218
0.321558
0.318578
0.28844
0.261697
0.250143
0.279227
0.41386
0.51313
0.514339
0.480182
0.472821
0.701483
1.06416
3.10515
2.36402
3.4451
4.19429
0.700513
0.30284
0.309591
0.30637
0.276393
0.247314
0.237049
0.24796
0.329463
0.407713
0.421292
0.409081
0.446034
0.744053
0.857571
5.33041
2.24554
2.8229
3.77188
2.80504
0.543728
0.305991
0.290581
0.263787
0.228423
0.211421
0.216318
0.261417
0.319546
0.345299
0.371049
0.514754
0.692207
4.2001
2.48753
3.01906
3.17224
2.1521
0.507449
0.287506
0.255333
0.226199
0.194643
0.191656
0.221473
0.267908
0.309656
0.418913
0.715462
0.733478
4.68156
3.59553
2.58926
2.72588
2.55599
1.58522
0.473005
0.254747
0.223269
0.201551
0.19108
0.214714
0.251618
0.317758
0.752769
0.953276
4.45684
3.19827
2.56914
2.51269
1.80537
1.03792
0.448534
0.230007
0.176506
0.175259
0.196591
0.237482
0.651012
1.38164
3.07788
2.5096
2.0295
1.36136
0.860162
0.496975
0.290344
0.235081
0.34666
0.531113
2.13464
2.42401
2.09412
1.69812
1.29674
1.04105
1.04988
1.70146
2.88588
0.0504701
0.0668853
0.0842002
0.0583205
0.110998
0.164579
0.1775
0.174789
0.169514
0.163298
0.14157
0.135671
1.58639
0.30041
0.170674
0.191498
0.221291
0.230016
0.234265
0.238243
0.212205
0.20551
0.193088
0.17929
0.164076
1.31756
0.177081
0.172757
0.211253
0.233806
0.25207
0.267623
0.281635
0.290311
0.298538
0.296383
0.241249
0.199157
0.162899
0.13217
4.96844
0.871987
0.235854
0.213638
0.236231
0.25412
0.271133
0.294515
0.322978
0.351584
0.371091
0.37868
0.368379
0.297318
0.222279
0.133212
1.22867
0.562011
0.247749
0.228602
0.246036
0.264996
0.278932
0.310509
0.349627
0.39214
0.426163
0.442115
0.444665
0.435092
0.399243
0.269594
0.125695
2.167
0.867367
0.477454
0.306147
0.250874
0.265746
0.274309
0.28724
0.323587
0.367429
0.412407
0.444785
0.462427
0.475135
0.498872
0.537359
0.508204
0.361301
0.109051
1.32505
1.03119
0.610011
0.343586
0.259231
0.269841
0.279603
0.299981
0.3354
0.377319
0.414884
0.431268
0.429226
0.423908
0.442469
0.513668
0.658889
0.730303
0.184207
0.918254
0.646503
0.482227
0.28911
0.265162
0.282425
0.298138
0.318436
0.345924
0.382071
0.40971
0.410547
0.399809
0.391076
0.398866
0.437435
0.582077
0.945871
0.483981
2.63341
0.590879
0.417224
0.326893
0.272363
0.28273
0.30695
0.323626
0.337761
0.353997
0.380859
0.396185
0.391868
0.387607
0.391274
0.403631
0.42667
0.504971
0.813857
1.1262
3.58479
0.38068
0.314944
0.271447
0.275937
0.303954
0.329861
0.346818
0.354191
0.357189
0.370462
0.377111
0.374459
0.381264
0.399251
0.419657
0.436438
0.48764
0.732173
1.41952
5.43864
0.316777
0.293871
0.273743
0.285841
0.318786
0.344344
0.36063
0.363758
0.356589
0.355443
0.354926
0.355542
0.372377
0.402
0.427783
0.436807
0.483259
0.731219
1.45064
0.564317
0.324764
0.286941
0.289523
0.323359
0.346966
0.362764
0.365382
0.353575
0.341606
0.334506
0.334941
0.354708
0.385734
0.406373
0.403759
0.437924
0.796157
1.36069
2.60632
0.395941
0.300983
0.297445
0.318058
0.33894
0.354876
0.359341
0.347338
0.329826
0.318903
0.317498
0.331641
0.352448
0.362564
0.361692
0.422613
0.939066
1.10861
4.39579
1.08144
0.431437
0.355023
0.328246
0.331331
0.342273
0.347159
0.336792
0.3171
0.302025
0.298961
0.306981
0.318397
0.322759
0.331094
0.516002
0.999742
2.53462
1.08485
0.584028
0.489086
0.379333
0.340743
0.334922
0.324897
0.305967
0.286503
0.277144
0.278154
0.287461
0.294786
0.360413
0.84897
1.05832
2.58421
1.95695
1.22623
1.03457
0.910118
0.557715
0.376733
0.309043
0.279943
0.263511
0.253482
0.249403
0.256954
0.30067
0.706849
1.23092
2.21693
1.84684
1.44584
1.44241
1.15868
0.691309
0.441067
0.306612
0.23956
0.223226
0.220808
0.246726
0.706278
1.44094
1.92866
1.88465
1.60477
1.11283
0.707003
0.458149
0.313667
0.266301
0.364652
0.615894
2.03661
1.81909
1.76799
1.39884
1.02612
0.823422
0.954095
1.93229
2.93305
0.0503364
0.0722619
0.0971879
0.100543
0.134606
0.207857
0.230155
0.230673
0.227949
0.219972
0.188272
0.165523
1.71443
0.336724
0.215049
0.235091
0.257792
0.266907
0.272572
0.276783
0.263029
0.257489
0.241562
0.207864
0.178775
1.70935
0.210151
0.208906
0.240347
0.257516
0.272072
0.284759
0.295287
0.302582
0.307951
0.306886
0.274759
0.232992
0.193028
0.132688
5.63349
0.1916
0.212216
0.243212
0.252477
0.262515
0.273637
0.288367
0.306966
0.327947
0.345238
0.356137
0.353075
0.305643
0.23806
0.156631
0.716607
0.230314
0.255238
0.259406
0.25988
0.262792
0.273115
0.292232
0.319074
0.351971
0.382899
0.405087
0.417496
0.412872
0.377354
0.268283
0.127868
2.32185
0.292922
0.258245
0.273072
0.270642
0.267839
0.269686
0.281112
0.304757
0.33742
0.374849
0.407014
0.431454
0.450555
0.476893
0.505975
0.485661
0.343533
0.0992076
1.15561
0.25622
0.273087
0.284179
0.280249
0.280312
0.284469
0.297936
0.321559
0.352032
0.380369
0.393861
0.39541
0.399597
0.421915
0.487316
0.62514
0.689383
0.186514
0.516291
0.256673
0.273165
0.287596
0.291868
0.298837
0.30755
0.321469
0.341464
0.366441
0.382549
0.379198
0.366239
0.35675
0.365806
0.401447
0.534147
0.877338
0.52765
2.37197
0.323346
0.24307
0.270595
0.29421
0.309319
0.321025
0.332924
0.346343
0.361413
0.377431
0.383524
0.374347
0.361106
0.354838
0.361675
0.384643
0.459511
0.738608
1.15858
3.25685
0.232792
0.235588
0.274707
0.306954
0.327114
0.340343
0.354319
0.366082
0.374315
0.381446
0.380911
0.37084
0.361225
0.360727
0.37192
0.392468
0.445929
0.658901
1.4108
4.9682
0.199478
0.230079
0.280837
0.320398
0.341622
0.353935
0.366955
0.375937
0.37803
0.377081
0.371761
0.362362
0.357432
0.363781
0.380574
0.398897
0.453195
0.669868
1.43205
0.326257
0.220522
0.279195
0.326744
0.349013
0.359462
0.369804
0.37598
0.373695
0.366563
0.357693
0.349553
0.348739
0.359183
0.375316
0.386951
0.421493
0.765266
1.38918
2.74155
0.232216
0.269314
0.320636
0.345418
0.356071
0.364563
0.369035
0.364759
0.354058
0.343338
0.336767
0.33889
0.35014
0.36255
0.371541
0.425943
0.934262
1.21467
4.20739
1.01935
0.311893
0.331583
0.346239
0.350769
0.354928
0.357585
0.352669
0.340264
0.327864
0.321949
0.325049
0.335423
0.343903
0.34747
0.521491
1.028
2.33036
1.0889
0.58398
0.4121
0.35361
0.341738
0.341755
0.337109
0.324722
0.310026
0.301484
0.301898
0.31062
0.315754
0.377767
0.854287
1.1236
2.22887
1.45219
0.954441
0.594567
0.443579
0.353781
0.326172
0.313422
0.296181
0.279661
0.268696
0.263898
0.271714
0.326215
0.730503
1.25272
1.34971
1.12115
0.818542
0.707927
0.556643
0.414831
0.335566
0.282368
0.242972
0.228807
0.225317
0.282291
0.90221
1.33616
1.31898
1.20922
1.1014
0.785989
0.528784
0.378537
0.28771
0.261242
0.546741
1.2084
1.51939
1.53271
1.27717
1.021
0.780311
0.664608
0.912002
1.97396
1.8938
0.055762
0.0737902
0.0991915
0.152865
0.157079
0.203821
0.23769
0.248692
0.248494
0.239447
0.198828
0.165727
1.7396
0.351202
0.224769
0.241514
0.277641
0.290449
0.297169
0.299474
0.292221
0.290168
0.277841
0.22598
0.171847
1.59872
0.253713
0.241087
0.263661
0.273034
0.281327
0.288838
0.294495
0.299587
0.303531
0.30494
0.29129
0.26151
0.218131
0.131836
6.00479
0.223893
0.243033
0.264735
0.26607
0.264936
0.265326
0.267965
0.273811
0.285705
0.301203
0.315902
0.320486
0.292368
0.238859
0.165821
0.492806
0.248547
0.272164
0.271959
0.266894
0.259884
0.257508
0.262713
0.276876
0.30022
0.327185
0.351491
0.367297
0.363485
0.330221
0.23498
0.116423
3.68646
0.263564
0.286061
0.285682
0.283558
0.277019
0.270084
0.269599
0.28025
0.302508
0.334164
0.368293
0.396291
0.41765
0.439343
0.45099
0.407661
0.271595
0.087499
2.19948
0.290151
0.294373
0.297136
0.298169
0.295037
0.291765
0.294763
0.306724
0.325641
0.345206
0.357074
0.365377
0.379989
0.407545
0.464044
0.569899
0.560545
0.145959
0.633022
0.273226
0.295857
0.306143
0.31338
0.314951
0.317474
0.325244
0.337154
0.349416
0.353622
0.346851
0.337377
0.335879
0.347846
0.38083
0.505907
0.775712
0.419164
3.21588
0.320348
0.268594
0.298739
0.317749
0.3293
0.334113
0.341882
0.354619
0.366311
0.371631
0.367298
0.353852
0.339679
0.332851
0.338582
0.358592
0.429135
0.678061
0.986074
4.09251
0.232229
0.266185
0.306018
0.333545
0.345626
0.35048
0.362071
0.376919
0.386631
0.387598
0.379149
0.363562
0.348705
0.341763
0.34682
0.363304
0.414317
0.603143
1.26983
5.59307
0.20251
0.262758
0.315296
0.349862
0.360466
0.363834
0.374772
0.387874
0.39446
0.39189
0.381051
0.365586
0.352875
0.349114
0.356346
0.372156
0.42724
0.618867
1.33035
0.27543
0.244078
0.319035
0.360252
0.370736
0.371755
0.378445
0.387148
0.389809
0.38395
0.37179
0.358253
0.349421
0.349744
0.358613
0.373393
0.411666
0.729583
1.35108
2.50488
0.227971
0.308393
0.357747
0.372694
0.372804
0.374216
0.377613
0.376584
0.368369
0.35632
0.345793
0.341647
0.345884
0.35491
0.375051
0.441506
0.909123
1.25606
4.39517
0.679398
0.300788
0.356984
0.373394
0.369233
0.364757
0.363078
0.359493
0.350298
0.33846
0.33006
0.329185
0.335841
0.345068
0.361209
0.576909
1.00815
2.35
0.869173
0.509719
0.421677
0.370156
0.350476
0.343712
0.339051
0.329684
0.317204
0.307923
0.306497
0.312686
0.324614
0.426882
0.871348
1.05542
2.35332
1.55256
0.987583
0.587683
0.429156
0.349095
0.317816
0.30764
0.297367
0.283078
0.270285
0.264699
0.274786
0.380297
0.792912
1.09974
1.51154
1.07124
0.674038
0.4757
0.362133
0.309052
0.283912
0.262147
0.23787
0.226345
0.224362
0.436509
0.989556
1.11062
1.05088
0.77287
0.658946
0.497733
0.378511
0.307436
0.25936
0.282696
0.830784
1.25604
1.0081
1.28731
1.02977
0.825389
0.65248
0.60203
0.948665
1.57321
0.897993
0.0734223
0.0772586
0.0987701
0.184014
0.176431
0.196061
0.225581
0.250176
0.258149
0.251582
0.204698
0.16385
1.58642
0.372032
0.250264
0.258994
0.295111
0.306765
0.314484
0.315453
0.313336
0.312865
0.301606
0.234878
0.162396
1.4211
0.311947
0.284098
0.290572
0.289249
0.287519
0.286971
0.286929
0.289049
0.293165
0.298371
0.306968
0.289431
0.24353
0.137331
4.54705
0.267101
0.274699
0.28442
0.280944
0.270836
0.259501
0.249926
0.24458
0.24725
0.259538
0.276889
0.287336
0.283506
0.244244
0.181481
0.473272
0.267013
0.285305
0.286774
0.279459
0.26506
0.251233
0.244209
0.247804
0.262469
0.283974
0.305169
0.317722
0.312912
0.283937
0.210972
0.109102
5.89289
0.259962
0.292106
0.298189
0.300409
0.292557
0.27906
0.269075
0.269996
0.284916
0.311504
0.344752
0.368895
0.38551
0.394428
0.386121
0.328835
0.211329
0.0686606
3.57046
0.290358
0.301969
0.313033
0.317181
0.310474
0.301434
0.298507
0.30406
0.315734
0.328018
0.337341
0.349672
0.367668
0.39455
0.434864
0.496666
0.4225
0.104491
1.18051
0.285323
0.309745
0.327216
0.332375
0.327518
0.325148
0.330999
0.340097
0.34499
0.341241
0.331201
0.324298
0.326326
0.337738
0.366015
0.483539
0.656308
0.281191
4.91809
0.471873
0.285809
0.320765
0.343354
0.348046
0.345144
0.349674
0.362642
0.373794
0.373749
0.362966
0.34584
0.330149
0.322736
0.325638
0.34075
0.407434
0.6347
0.732148
5.69917
0.283122
0.29088
0.33645
0.362343
0.365167
0.363444
0.373284
0.389066
0.399139
0.396786
0.383114
0.36286
0.343524
0.331965
0.33155
0.34232
0.390759
0.567952
1.07669
6.77048
0.240207
0.294319
0.352867
0.381549
0.381644
0.380149
0.390696
0.404601
0.411923
0.407053
0.391246
0.369938
0.350708
0.339865
0.339628
0.350402
0.404775
0.583015
1.17812
0.383886
0.276941
0.361972
0.394027
0.394442
0.391223
0.397493
0.406421
0.409559
0.401705
0.384452
0.364159
0.348478
0.341213
0.343209
0.357563
0.397608
0.692145
1.22412
2.70792
0.267689
0.356275
0.395194
0.399542
0.39405
0.393237
0.395309
0.393521
0.38327
0.366745
0.350171
0.339346
0.336193
0.341284
0.371673
0.448878
0.85517
1.16891
4.34667
0.691541
0.340376
0.384439
0.393939
0.386816
0.379609
0.375317
0.370039
0.35961
0.344832
0.331434
0.324301
0.32431
0.335694
0.368019
0.614161
0.936309
2.26697
0.605591
0.411599
0.402427
0.379385
0.362363
0.351634
0.343584
0.332918
0.319125
0.306552
0.299545
0.303217
0.322935
0.48537
0.819134
0.937553
2.46894
1.50645
0.93258
0.544261
0.410466
0.346292
0.317392
0.304577
0.29469
0.281868
0.267399
0.26116
0.275652
0.457495
0.785636
0.877076
1.71768
1.33325
0.790533
0.494306
0.354327
0.295967
0.273279
0.256289
0.236659
0.22509
0.230444
0.587926
0.906392
0.840582
1.32186
0.869948
0.548002
0.389584
0.318538
0.276972
0.251537
0.322373
0.917336
1.0136
0.695349
1.11989
1.01966
0.879275
0.741636
0.729063
0.94365
0.987006
0.500649
0.104001
0.0910072
0.100745
0.192437
0.204862
0.216419
0.227157
0.244488
0.258547
0.258599
0.214394
0.173861
1.32274
0.392037
0.296248
0.294099
0.312709
0.314786
0.318185
0.317387
0.321822
0.32411
0.32013
0.257581
0.174936
1.31013
0.375863
0.33195
0.308807
0.299361
0.289965
0.279535
0.271305
0.266794
0.267069
0.27035
0.298364
0.294517
0.264747
0.150863
3.30721
0.311989
0.304187
0.29909
0.292727
0.278093
0.258788
0.239166
0.224663
0.218521
0.222554
0.23389
0.241905
0.257034
0.237605
0.19911
0.507583
0.280258
0.295563
0.300542
0.294243
0.276331
0.254469
0.238257
0.233898
0.241546
0.25578
0.268551
0.270593
0.259537
0.233294
0.186403
0.109946
6.29574
0.265922
0.294983
0.309443
0.316435
0.308093
0.289736
0.27381
0.269358
0.279571
0.302239
0.330854
0.347063
0.353787
0.345638
0.319314
0.25508
0.160278
0.0579672
4.9898
0.282999
0.310426
0.329555
0.334551
0.322548
0.30747
0.301724
0.306055
0.315184
0.32373
0.330762
0.341984
0.35799
0.377029
0.396732
0.410812
0.303549
0.0783963
2.16265
0.299019
0.328599
0.350919
0.351953
0.338867
0.331335
0.336076
0.345022
0.348084
0.341581
0.329659
0.322234
0.322318
0.330362
0.352511
0.452707
0.518144
0.179037
6.67446
0.896001
0.3079
0.34974
0.372904
0.370694
0.360956
0.362096
0.372999
0.383067
0.3815
0.368467
0.348472
0.330205
0.319408
0.318066
0.327198
0.390066
0.592219
0.475627
7.39236
0.456688
0.3256
0.374173
0.395499
0.391871
0.387118
0.394676
0.407715
0.415804
0.411296
0.394193
0.369273
0.34507
0.328345
0.3221
0.326682
0.37243
0.539977
0.82316
7.82938
0.378063
0.344156
0.397554
0.416344
0.412056
0.410496
0.420122
0.432021
0.437195
0.429084
0.408178
0.379967
0.353622
0.335317
0.327805
0.332798
0.38502
0.552432
0.950794
0.67078
0.33668
0.411939
0.430031
0.426798
0.425583
0.432855
0.440429
0.441435
0.429601
0.405797
0.376469
0.351829
0.335434
0.329888
0.342054
0.380855
0.646578
0.992115
3.13212
0.362924
0.414598
0.433259
0.43165
0.428276
0.429654
0.430547
0.426067
0.41124
0.386813
0.360846
0.34015
0.327711
0.327286
0.364695
0.444181
0.769343
0.948708
4.22364
0.793978
0.407272
0.42258
0.422477
0.416318
0.411036
0.405451
0.395679
0.380238
0.358928
0.337214
0.320628
0.312642
0.325215
0.369214
0.604258
0.814079
2.13333
0.545456
0.411264
0.404807
0.393407
0.381459
0.370321
0.358478
0.343782
0.325566
0.307045
0.293415
0.294597
0.320866
0.521262
0.709398
0.788721
2.37572
1.20271
0.596256
0.440812
0.378565
0.344559
0.324181
0.309865
0.296952
0.28245
0.266503
0.261338
0.280972
0.506855
0.699757
0.682399
1.70208
1.14599
0.68826
0.457022
0.347171
0.297792
0.275459
0.259112
0.242875
0.230468
0.249266
0.615432
0.758412
0.640116
1.09209
0.807925
0.597194
0.443895
0.358929
0.318744
0.308034
0.40145
0.786058
0.773513
0.521596
0.846962
0.766374
0.725931
0.666368
0.591997
0.476294
0.439242
0.336299
0.140167
0.1206
0.11379
0.176085
0.24473
0.262411
0.256932
0.250975
0.250653
0.247611
0.207015
0.173264
1.03763
0.3981
0.343482
0.318746
0.319602
0.315347
0.312321
0.307662
0.313589
0.312184
0.307181
0.257952
0.184342
1.25673
0.425516
0.381422
0.325035
0.303643
0.288844
0.271812
0.25665
0.245646
0.239175
0.234935
0.257708
0.256475
0.253282
0.158729
2.66575
0.363905
0.339941
0.32152
0.310364
0.291879
0.266553
0.238738
0.21713
0.20508
0.201895
0.202605
0.199923
0.202742
0.194316
0.18326
0.652668
0.30285
0.315168
0.321951
0.315742
0.293614
0.264499
0.240641
0.230209
0.232715
0.240874
0.243687
0.234452
0.214593
0.186616
0.14622
0.102732
5.5719
0.300153
0.309122
0.328909
0.338581
0.326734
0.300533
0.277941
0.269499
0.276857
0.296138
0.316986
0.326132
0.321759
0.298914
0.262172
0.195544
0.120457
0.0602702
4.80339
0.291199
0.330224
0.354909
0.358494
0.338045
0.314065
0.303607
0.307279
0.316195
0.323833
0.328649
0.335226
0.344691
0.351381
0.349891
0.327669
0.21867
0.0647347
3.26635
0.334707
0.361881
0.384446
0.379169
0.357588
0.343366
0.343775
0.351134
0.354571
0.348507
0.334554
0.32259
0.317921
0.320112
0.335728
0.402646
0.38487
0.120685
7.53411
1.7528
0.364995
0.39442
0.412058
0.402953
0.388359
0.384119
0.38922
0.396529
0.394801
0.380722
0.357003
0.333595
0.31759
0.310786
0.313091
0.372738
0.523767
0.282317
8.37395
0.952026
0.401178
0.425098
0.436966
0.429933
0.424253
0.426745
0.434294
0.439383
0.432534
0.411533
0.381285
0.350913
0.327963
0.315323
0.313162
0.354633
0.504448
0.539213
8.15949
0.754752
0.435295
0.450758
0.457744
0.454382
0.454999
0.46089
0.468518
0.470573
0.458648
0.431835
0.396649
0.362309
0.335674
0.320143
0.318276
0.364549
0.512994
0.680583
1.14167
0.444619
0.466102
0.470656
0.470307
0.473957
0.480775
0.485973
0.483501
0.467243
0.436187
0.398048
0.362191
0.335298
0.320733
0.327532
0.36171
0.583831
0.713129
3.31828
0.501743
0.473141
0.473353
0.473282
0.47616
0.480318
0.480804
0.473099
0.45321
0.419558
0.382143
0.348918
0.325262
0.316558
0.352388
0.424195
0.65605
0.677924
4.0331
0.838441
0.474369
0.462264
0.460216
0.459777
0.458608
0.45309
0.439401
0.416679
0.386434
0.353532
0.325228
0.307033
0.315724
0.363257
0.552028
0.66863
2.0288
0.583864
0.447988
0.430373
0.423748
0.416053
0.405113
0.389163
0.368015
0.342647
0.315769
0.294012
0.289371
0.316813
0.509048
0.592061
0.627692
2.21772
1.09565
0.502134
0.406655
0.378905
0.360715
0.344829
0.327773
0.309363
0.290706
0.272332
0.265937
0.285064
0.493261
0.597377
0.542754
1.63658
0.928912
0.525472
0.394638
0.338765
0.302857
0.284624
0.271588
0.264798
0.249457
0.273727
0.543986
0.615505
0.510206
0.991397
0.648367
0.48883
0.406835
0.375748
0.371975
0.378213
0.391762
0.530726
0.554046
0.402594
0.828958
0.658822
0.538391
0.436286
0.311612
0.21796
0.208215
0.249377
0.17354
0.160022
0.143811
0.14239
0.282042
0.307548
0.291047
0.278466
0.262182
0.243216
0.195746
0.161431
0.829745
0.396334
0.380453
0.332788
0.313319
0.305425
0.300201
0.294339
0.304139
0.294949
0.279575
0.22716
0.163586
1.22873
0.451205
0.405129
0.345171
0.312741
0.293561
0.271738
0.25162
0.237515
0.227461
0.220024
0.226956
0.216295
0.207079
0.13153
2.3526
0.431314
0.36554
0.350964
0.337662
0.317525
0.287587
0.251709
0.22299
0.206852
0.200771
0.196115
0.188004
0.172839
0.155941
0.137175
0.929663
0.336026
0.343388
0.35322
0.346985
0.318618
0.279691
0.246728
0.229884
0.227756
0.231705
0.229524
0.2165
0.195216
0.169246
0.119907
0.0791027
4.83364
0.385417
0.337313
0.360682
0.373175
0.354985
0.31584
0.281736
0.266677
0.270462
0.285863
0.2994
0.302659
0.290482
0.261324
0.225364
0.169718
0.100732
0.0423858
4.27386
0.342278
0.366534
0.394461
0.395893
0.364123
0.327332
0.307756
0.307658
0.316213
0.323661
0.324873
0.325219
0.324981
0.318237
0.300609
0.262727
0.165324
0.0499371
4.01442
0.409433
0.410685
0.430278
0.418856
0.387538
0.364126
0.356671
0.360415
0.363756
0.357011
0.340991
0.323178
0.310877
0.303635
0.309131
0.342179
0.278405
0.0861327
7.47936
2.97874
0.470842
0.450911
0.460185
0.446733
0.426482
0.414817
0.41239
0.415417
0.412592
0.39576
0.368513
0.338665
0.315115
0.300169
0.293486
0.349129
0.421622
0.17
8.77055
1.82589
0.521619
0.482009
0.485098
0.4783
0.469268
0.465126
0.466059
0.467226
0.456595
0.431906
0.396631
0.359232
0.328542
0.307797
0.296812
0.3322
0.453231
0.313682
8.0969
1.33794
0.55899
0.5053
0.504657
0.505238
0.504408
0.505826
0.508523
0.506003
0.489082
0.458055
0.416855
0.374093
0.338634
0.31378
0.302807
0.338995
0.458314
0.435518
1.49028
0.586549
0.518105
0.515346
0.520836
0.526095
0.530769
0.532638
0.525696
0.504253
0.468587
0.423064
0.376803
0.339163
0.313823
0.310814
0.336761
0.503244
0.464829
3.27213
0.655108
0.528741
0.516685
0.521593
0.528984
0.533791
0.532642
0.521785
0.496821
0.457461
0.409602
0.363778
0.327905
0.307843
0.331633
0.387815
0.53131
0.442431
3.66929
1.00162
0.544268
0.505782
0.505792
0.510927
0.512649
0.506981
0.491384
0.462477
0.422638
0.377914
0.336907
0.306914
0.305068
0.34481
0.478907
0.524086
1.97822
0.643053
0.492541
0.472411
0.4702
0.465569
0.453195
0.432928
0.405597
0.370372
0.332773
0.300938
0.287466
0.307269
0.459426
0.486007
0.469913
2.15106
1.03518
0.513237
0.43127
0.410236
0.396358
0.38035
0.359161
0.334856
0.309256
0.283765
0.273301
0.285161
0.439937
0.498908
0.43078
1.58124
0.850651
0.486281
0.390915
0.355683
0.321002
0.302451
0.288597
0.28019
0.268112
0.28802
0.4347
0.475279
0.40391
0.936793
0.553873
0.404639
0.348664
0.337269
0.345948
0.325217
0.285624
0.314291
0.359828
0.300137
0.853588
0.635507
0.468726
0.349982
0.233422
0.153303
0.134898
0.191608
0.196575
0.19517
0.17817
0.107634
0.296381
0.330857
0.304349
0.292971
0.282193
0.259645
0.202295
0.150662
0.781949
0.358131
0.377667
0.33468
0.304749
0.293978
0.285036
0.277871
0.291711
0.287006
0.263217
0.199505
0.140448
1.18547
0.439479
0.378465
0.359064
0.327405
0.31054
0.287061
0.262073
0.243268
0.232236
0.226452
0.222994
0.20448
0.172703
0.104563
2.05721
0.494402
0.362202
0.373273
0.369474
0.353419
0.322261
0.278517
0.240852
0.21912
0.210059
0.20584
0.201114
0.186877
0.164733
0.115599
1.22032
0.372748
0.36699
0.391007
0.389717
0.354441
0.302512
0.256471
0.230742
0.223288
0.222971
0.21927
0.208241
0.192571
0.174681
0.130955
0.0615078
4.12414
0.500949
0.374557
0.400204
0.422126
0.397619
0.341759
0.290764
0.26383
0.261048
0.270725
0.278258
0.276849
0.261201
0.232348
0.201839
0.16006
0.0924121
0.0287083
3.98706
0.438008
0.417085
0.446098
0.447513
0.403285
0.350579
0.317825
0.309741
0.3156
0.319136
0.317853
0.312013
0.301268
0.283194
0.257728
0.218371
0.136621
0.0386789
3.99398
0.5172
0.468773
0.484917
0.469441
0.428275
0.39319
0.376077
0.373792
0.372258
0.363852
0.347557
0.324876
0.302452
0.282318
0.276385
0.285348
0.206354
0.0666382
6.70028
4.13109
0.593612
0.509307
0.51337
0.498085
0.471336
0.450598
0.441019
0.438059
0.42936
0.411235
0.382153
0.346399
0.312939
0.284978
0.266645
0.31518
0.316912
0.117156
8.2223
3.08214
0.649336
0.537606
0.536403
0.530048
0.516027
0.504629
0.499326
0.494639
0.480262
0.453186
0.414186
0.369876
0.329285
0.296194
0.272972
0.304764
0.383263
0.187028
7.46343
2.28764
0.689023
0.558434
0.553762
0.555877
0.551962
0.547589
0.544899
0.537228
0.517072
0.48285
0.437032
0.386583
0.340934
0.304252
0.281945
0.309396
0.389297
0.266237
2.1789
0.750085
0.569901
0.56181
0.570104
0.574118
0.574766
0.572152
0.560049
0.534785
0.495838
0.445164
0.390309
0.342037
0.304976
0.290458
0.306141
0.411834
0.291162
3.28066
0.876065
0.584512
0.562584
0.569993
0.577834
0.579938
0.575028
0.559511
0.530845
0.48792
0.43311
0.37698
0.330075
0.298912
0.307648
0.342956
0.409117
0.279398
3.38265
1.10782
0.611467
0.554502
0.554909
0.561347
0.561973
0.55397
0.535281
0.502539
0.455024
0.399739
0.34713
0.307534
0.296343
0.319452
0.401063
0.393622
1.83482
0.687288
0.545179
0.525178
0.52337
0.519075
0.506153
0.482129
0.445448
0.398933
0.34868
0.306288
0.288478
0.298314
0.396692
0.384909
0.32933
2.03355
1.04536
0.579824
0.49165
0.465066
0.448807
0.428785
0.400889
0.368216
0.329508
0.291476
0.273269
0.282183
0.376186
0.387317
0.319075
1.54052
0.883953
0.531596
0.438839
0.404547
0.359126
0.331182
0.30504
0.277385
0.264429
0.261761
0.316505
0.327101
0.286254
0.919929
0.533134
0.391894
0.334207
0.310683
0.297437
0.254317
0.200566
0.196546
0.224661
0.206392
0.825902
0.5962
0.429808
0.307598
0.196897
0.126403
0.105438
0.154247
0.197631
0.214446
0.202715
0.0756814
0.267165
0.326011
0.299891
0.288052
0.279751
0.261194
0.211678
0.142528
0.830332
0.304521
0.328226
0.317358
0.296834
0.292183
0.283621
0.273191
0.270704
0.269459
0.250377
0.179872
0.123215
1.19472
0.394294
0.323465
0.356798
0.338174
0.332437
0.31391
0.28629
0.262575
0.249873
0.247298
0.246412
0.23407
0.170033
0.104973
1.84271
0.504463
0.333958
0.380196
0.400388
0.394833
0.368027
0.318536
0.269258
0.237541
0.223118
0.219071
0.21944
0.224022
0.211227
0.169133
1.26782
0.401932
0.378812
0.431001
0.444221
0.403809
0.338417
0.275887
0.23751
0.221221
0.215008
0.209602
0.200769
0.190058
0.17883
0.150487
0.0840382
3.43939
0.607532
0.421824
0.441449
0.482188
0.454402
0.38087
0.310475
0.267269
0.254232
0.255041
0.256965
0.25206
0.235694
0.210005
0.185574
0.155762
0.0933303
0.023424
3.70156
0.572691
0.480615
0.503979
0.508955
0.452984
0.383721
0.336045
0.316593
0.312611
0.311302
0.307679
0.297606
0.279003
0.253171
0.224917
0.190361
0.125662
0.0313007
3.74105
0.638682
0.537275
0.544626
0.526719
0.475784
0.429173
0.401979
0.389757
0.378638
0.367244
0.351609
0.327082
0.2959
0.263505
0.247618
0.240396
0.166026
0.0560131
6.39943
4.73801
0.720588
0.577495
0.570851
0.552656
0.518678
0.489948
0.472815
0.459405
0.444078
0.42401
0.396297
0.357073
0.313749
0.270506
0.242992
0.277172