/*--------------------------------*- C++ -*----------------------------------*\
| =========                 |                                                 |
| \\      /  F ield         | OpenFOAM: The Open Source CFD Toolbox           |
|  \\    /   O peration     | Version:  2406                                  |
|   \\  /    A nd           | Website:  www.openfoam.com                      |
|    \\/     M anipulation  |                                                 |
\*---------------------------------------------------------------------------*/
FoamFile
{
    version     2.0;
    format      ascii;
    arch        "LSB;label=32;scalar=64";
    class       volScalarField;
    location    "200";
    object      nut;
}
// * * * * * * * * * * * * * * * * * * * * * * * * * * * * * * * * * * * * * //

dimensions      [0 2 -1 0 0 0 0];

internalField   nonuniform List<scalar> 
238188
(
0.00544515
0.00122564
0.00159417
0.00730982
0.0011796
0.00145107
0.00133092
0.00256834
0.0148939
0.00113474
0.00157863
0.00140809
0.00207164
0.00228341
0.00446622
0.0013417
0.00205478
0.00323914
0.00414074
0.0396716
0.00712835
0.01744
0.00897567
0.00447068
0.00590771
0.0060253
0.0122898
0.0046355
0.00385051
0.00437385
0.0046946
0.0457678
0.0141899
0.00378633
0.00355114
0.0452231
0.00844285
0.00338237
0.00369399
0.00425905
0.0112281
0.00521171
0.00914809
0.0131544
0.013646
0.0113452
0.00962747
0.00920327
0.00820036
0.0252969
0.0458816
0.0341866
0.0193196
0.0363293
0.030196
0.020987
0.0171995
0.0171572
0.0189376
0.0195693
0.016089
0.0104529
0.0354312
0.0603487
0.0470408
0.0414379
0.0158999
0.0450145
0.0326014
0.0164703
0.0127434
0.0159983
0.0202686
0.0228481
0.0205294
0.0149739
0.00961245
0.0913472
0.123504
0.186937
0.0716337
0.025826
0.0205701
0.0190172
0.031219
0.0123785
0.015829
0.0230523
0.0265391
0.0255588
0.0188127
0.011562
0.00771899
0.209532
0.199476
0.0403678
0.0145505
0.0152193
0.0189999
0.0206761
0.0150132
0.020023
0.0319858
0.034288
0.0324329
0.0267
0.0184917
0.0118005
0.0070855
0.00549158
0.0741663
0.304321
0.160752
0.0240589
0.0203722
0.0145428
0.0146979
0.017975
0.0302431
0.0490481
0.0513342
0.0462708
0.0453634
0.0449262
0.0470139
0.0408965
0.0216031
0.00759812
0.00598301
0.111512
0.341029
0.173815
0.0802364
0.0794437
0.0269589
0.0241424
0.0149064
0.057438
0.0677119
0.0579147
0.067342
0.0913135
0.110347
0.127584
0.126041
0.0775166
0.0265045
0.00527459
0.130829
0.308866
0.218695
0.118552
0.0499529
0.0374973
0.02064
0.0381575
0.0667197
0.0692259
0.0476164
0.0663533
0.102639
0.149982
0.186645
0.190941
0.153883
0.0675995
0.0132396
0.0585557
0.147417
0.266155
0.262865
0.0857217
0.0301747
0.0306684
0.0382834
0.0537343
0.0662507
0.0658846
0.0322388
0.0680148
0.155962
0.213882
0.234501
0.231566
0.203
0.126475
0.0308936
0.0816383
0.16974
0.243211
0.290568
0.118933
0.0334222
0.0418589
0.0399276
0.0539802
0.0591004
0.0681451
0.0324313
0.113946
0.201284
0.239611
0.246936
0.241985
0.221439
0.158895
0.0531911
0.044299
0.200682
0.251369
0.296071
0.197541
0.0339397
0.0554218
0.0460571
0.0507059
0.041132
0.065611
0.0392796
0.129842
0.202357
0.228463
0.236452
0.234258
0.217083
0.15764
0.0531051
0.213282
0.258319
0.287299
0.233327
0.107222
0.0726583
0.0778368
0.062331
0.0299611
0.0393506
0.0557713
0.0979775
0.169388
0.187982
0.204081
0.210175
0.192436
0.123948
0.044378
0.15434
0.26287
0.264665
0.255217
0.209902
0.0360307
0.10326
0.0950308
0.0541397
0.0184193
0.0548861
0.0818045
0.139946
0.158212
0.170246
0.164063
0.132282
0.0608173
0.0335449
0.097448
0.26089
0.240087
0.240351
0.194342
0.135924
0.0499498
0.0970837
0.0842992
0.0377485
0.039868
0.0815386
0.131789
0.148571
0.139015
0.0920518
0.0568509
0.036899
0.168285
0.232018
0.221597
0.192102
0.151519
0.0604945
0.0454778
0.0720004
0.0633713
0.0339135
0.0728625
0.116906
0.130415
0.103907
0.08412
0.05221
0.0337939
0.126585
0.172574
0.202201
0.190609
0.136884
0.0890013
0.0315626
0.0280174
0.0523881
0.0386023
0.0521718
0.0798739
0.0924528
0.0902879
0.0983712
0.0463327
0.113855
0.136481
0.168595
0.156121
0.0951271
0.0491244
0.0219679
0.0268761
0.043395
0.0496514
0.0591138
0.0639783
0.111502
0.0580751
0.0952572
0.112027
0.112289
0.0758413
0.0428868
0.0273958
0.0418904
0.054871
0.0509521
0.098687
0.0602932
0.0772886
0.0820459
0.0846894
0.0769898
0.0695637
0.0720691
0.0948723
0.0614973
0.0228648
0.0255533
0.028112
0.0155457
0.0494359
0.0679354
0.0672491
0.0589049
0.0515288
0.0466393
0.0380527
0.0327988
0.0782057
0.0249376
0.0512267
0.0872108
0.0884447
0.0826961
0.0709014
0.0601146
0.0557294
0.0526857
0.0480245
0.0406259
0.0307524
0.0378621
0.0185354
0.0197119
0.0335146
0.0824881
0.115762
0.10968
0.0980433
0.0813693
0.0719381
0.0688299
0.0597868
0.0473475
0.0327841
0.0209244
0.193301
0.085259
0.0622098
0.037535
0.0159489
0.058204
0.138474
0.134951
0.129606
0.113243
0.0993126
0.0973589
0.0912611
0.0747131
0.051288
0.0272814
0.04999
0.0361161
0.0346803
0.0314288
0.0256847
0.09672
0.133949
0.159146
0.157333
0.150079
0.147473
0.152267
0.148928
0.131332
0.10087
0.0644196
0.0223092
0.0692279
0.041741
0.0340315
0.0385661
0.0398541
0.0384846
0.0416461
0.121027
0.180344
0.179937
0.182919
0.193937
0.209742
0.216036
0.204317
0.175422
0.129327
0.0645897
0.012734
0.0583757
0.0597829
0.046796
0.0464897
0.0458042
0.0409734
0.0442629
0.15739
0.199013
0.197601
0.205295
0.223086
0.248745
0.270871
0.275304
0.254687
0.206437
0.133589
0.0260943
0.0868582
0.0979592
0.0702523
0.0537346
0.0422374
0.0370528
0.0833647
0.193788
0.213068
0.208572
0.21041
0.231
0.265169
0.303077
0.331421
0.328219
0.281097
0.197035
0.0632299
0.114327
0.111789
0.136717
0.10907
0.0434052
0.0376921
0.0709906
0.146808
0.218405
0.225761
0.214091
0.195058
0.218969
0.268125
0.322553
0.361323
0.368285
0.332589
0.246907
0.130995
0.154396
0.128822
0.158683
0.155971
0.0402859
0.0708541
0.134772
0.197422
0.236828
0.236482
0.217666
0.176833
0.20257
0.273465
0.336921
0.371021
0.375357
0.337742
0.240607
0.173439
0.197493
0.142007
0.173901
0.193478
0.0540519
0.12512
0.19104
0.230398
0.247513
0.241408
0.222089
0.175222
0.189896
0.274025
0.338243
0.36184
0.356643
0.307158
0.20789
0.170007
0.159743
0.177832
0.212334
0.157605
0.11005
0.223544
0.249239
0.249631
0.233368
0.219239
0.186496
0.181903
0.25314
0.31111
0.325429
0.308309
0.236299
0.167443
0.146891
0.202882
0.18007
0.214559
0.225441
0.0695147
0.159655
0.247384
0.248185
0.218261
0.194877
0.186455
0.179528
0.219519
0.262563
0.271702
0.239237
0.152224
0.135037
0.104422
0.226311
0.195817
0.207796
0.234804
0.178257
0.070677
0.150066
0.222512
0.209414
0.170848
0.160344
0.164732
0.18623
0.213471
0.222728
0.175786
0.113216
0.103976
0.238404
0.216507
0.224572
0.214973
0.15904
0.0732598
0.118509
0.16634
0.159758
0.137158
0.138343
0.153795
0.172892
0.1844
0.12216
0.108943
0.085948
0.207919
0.237763
0.227106
0.215219
0.192022
0.137104
0.0700652
0.0777516
0.101235
0.1101
0.115756
0.128004
0.145239
0.139358
0.109169
0.110076
0.203491
0.225627
0.227008
0.206792
0.157248
0.105505
0.0599468
0.0436794
0.0518108
0.0737468
0.096324
0.112336
0.0829443
0.127045
0.188339
0.192248
0.17157
0.129443
0.0926388
0.0638049
0.0498719
0.0540026
0.0466717
0.0630467
0.138169
0.135956
0.142225
0.13475
0.113676
0.09675
0.098126
0.123282
0.152106
0.0301021
0.037807
0.045281
0.0278828
0.0683313
0.100066
0.10905
0.106842
0.100146
0.0913882
0.0729346
0.0562057
0.0757749
0.0313902
0.104938
0.130171
0.149374
0.149231
0.144349
0.138403
0.116559
0.10354
0.0878223
0.0682838
0.0456743
0.0503229
0.042664
0.0779906
0.15437
0.165667
0.169943
0.170253
0.167819
0.161327
0.154299
0.143112
0.108139
0.0807824
0.0546858
0.0279873
0.120771
0.0337937
0.0178613
0.131729
0.17544
0.183933
0.186561
0.189802
0.193252
0.194098
0.189525
0.179789
0.16299
0.1202
0.0799871
0.037755
0.0454019
0.0281577
0.0833462
0.138617
0.155812
0.193597
0.20155
0.210191
0.220657
0.229994
0.232811
0.223182
0.205843
0.178871
0.140954
0.0782048
0.0259303
0.0645668
0.0406848
0.033406
0.0550562
0.140527
0.181626
0.211706
0.220805
0.234329
0.251291
0.268566
0.280027
0.281195
0.265661
0.240314
0.209176
0.149703
0.0808159
0.0129933
0.0552109
0.0498209
0.0411357
0.0508331
0.154512
0.205853
0.231146
0.244468
0.259666
0.278956
0.298398
0.312535
0.32411
0.336995
0.32348
0.280511
0.226659
0.160951
0.0305707
0.0537849
0.0443004
0.0399815
0.0720745
0.189781
0.237824
0.259547
0.272149
0.284719
0.302377
0.319149
0.330375
0.344006
0.36504
0.378237
0.354676
0.281491
0.228195
0.0820938
0.0972803
0.0471042
0.0395951
0.0416683
0.113626
0.230244
0.272701
0.291178
0.300508
0.308227
0.320466
0.329807
0.337834
0.353522
0.379635
0.404271
0.396412
0.32566
0.262655
0.175628
0.128087
0.0425799
0.0410806
0.0520721
0.162679
0.266019
0.303486
0.32023
0.326155
0.32733
0.331204
0.333069
0.338128
0.355156
0.383433
0.408414
0.399836
0.315336
0.250015
0.221222
0.175116
0.0450665
0.0446935
0.0557817
0.20264
0.292673
0.32721
0.342099
0.345421
0.34101
0.336552
0.331615
0.333734
0.350261
0.378174
0.398982
0.379515
0.275293
0.221519
0.221553
0.0667354
0.0494245
0.0560695
0.205991
0.301998
0.338059
0.353721
0.356342
0.348758
0.338474
0.328584
0.326736
0.339603
0.362935
0.375975
0.339834
0.26987
0.194294
0.199288
0.150122
0.0620444
0.0605059
0.134766
0.255918
0.320139
0.347934
0.355077
0.34611
0.332686
0.322702
0.319449
0.327337
0.340715
0.340497
0.270149
0.19148
0.178416
0.157453
0.193687
0.107913
0.0749195
0.0937719
0.150004
0.232414
0.293713
0.322547
0.323415
0.310971
0.300948
0.29972
0.306571
0.314393
0.302247
0.240725
0.132682
0.161169
0.172186
0.130994
0.103979
0.0945365
0.108277
0.157891
0.215291
0.249318
0.257135
0.253681
0.254333
0.25955
0.267178
0.256259
0.13833
0.134171
0.138613
0.143174
0.17677
0.160085
0.13064
0.115262
0.0937268
0.0985673
0.122082
0.144863
0.16055
0.173515
0.185412
0.197808
0.166619
0.11103
0.144768
0.148948
0.198713
0.169551
0.154426
0.128859
0.097624
0.0777563
0.0680334
0.0677657
0.0806058
0.11425
0.125839
0.0904191
0.141358
0.197324
0.188189
0.162751
0.123753
0.0910599
0.0691097
0.0566799
0.0548535
0.0519147
0.0735974
0.142205
0.132863
0.147693
0.132704
0.107436
0.0909378
0.096082
0.133196
0.154688
0.0290788
0.0402227
0.0516076
0.0468642
0.0837968
0.120015
0.133917
0.134927
0.12994
0.120247
0.0972087
0.072918
0.0841268
0.0389242
0.132214
0.152949
0.170159
0.170582
0.16702
0.162005
0.147175
0.134614
0.116379
0.0888473
0.0573162
0.065552
0.0552128
0.102411
0.173581
0.180633
0.182613
0.182018
0.179276
0.174328
0.168027
0.15812
0.132795
0.101519
0.0725401
0.0340323
0.135065
0.0557735
0.116277
0.179921
0.190263
0.191826
0.191264
0.191457
0.192413
0.19262
0.189441
0.182671
0.168379
0.132868
0.0908656
0.0471627
0.0405995
0.111874
0.187662
0.202607
0.20513
0.203677
0.203667
0.207817
0.215405
0.223542
0.226997
0.220651
0.208079
0.181347
0.142486
0.0821027
0.0281461
0.0740297
0.0332569
0.152213
0.203241
0.221946
0.223564
0.222579
0.224917
0.234572
0.250127
0.268455
0.283554
0.287309
0.270936
0.245241
0.210041
0.151394
0.0802596
0.0109136
0.0541233
0.0453192
0.151837
0.21505
0.242178
0.246725
0.248142
0.253649
0.266203
0.285278
0.306402
0.325651
0.34329
0.35063
0.330372
0.28207
0.230097
0.160886
0.0299894
0.0415731
0.0920184
0.162678
0.234056
0.264498
0.274078
0.2795
0.287076
0.299994
0.31945
0.337993
0.352362
0.36739
0.384643
0.387532
0.356692
0.283826
0.229788
0.089826
0.0886156
0.0388054
0.109316
0.185487
0.256777
0.289836
0.303475
0.312248
0.321375
0.333772
0.349179
0.361904
0.371122
0.382874
0.400686
0.416438
0.401567
0.326509
0.263712
0.188123
0.115806
0.0417242
0.126528
0.207011
0.278833
0.313805
0.330338
0.342201
0.352065
0.361371
0.371015
0.377743
0.382388
0.391144
0.407164
0.424202
0.409977
0.320031
0.253107
0.234864
0.160487
0.0459881
0.137559
0.219993
0.296823
0.333843
0.352515
0.36549
0.374725
0.38027
0.383842
0.384906
0.385823
0.392357
0.406856
0.420482
0.396453
0.285414
0.225899
0.234289
0.0453048
0.123312
0.215344
0.301106
0.343138
0.364711
0.378793
0.387287
0.389721
0.388198
0.384621
0.382929
0.38808
0.399797
0.406789
0.366552
0.290057
0.202056
0.215279
0.144669
0.0630808
0.182507
0.268508
0.323575
0.356123
0.37616
0.387088
0.388847
0.384041
0.377928
0.37479
0.378487
0.386048
0.380669
0.301743
0.21633
0.190761
0.17891
0.189651
0.089174
0.0844531
0.160246
0.233418
0.291955
0.332461
0.357702
0.366117
0.362849
0.356383
0.35336
0.356403
0.359866
0.333345
0.270542
0.150391
0.177617
0.151363
0.112493
0.0940023
0.102904
0.140188
0.200153
0.25635
0.289401
0.301691
0.30228
0.302269
0.305258
0.305111
0.283242
0.149708
0.145957
0.156123
0.120601
0.127413
0.122256
0.100849
0.0948133
0.108201
0.136925
0.168161
0.186999
0.197128
0.20456
0.212026
0.220039
0.139372
0.118829
0.155919
0.110217
0.148664
0.127066
0.110893
0.0979411
0.0886561
0.0877504
0.0867406
0.0862445
0.0919655
0.114408
0.0916262
0.108217
0.143257
0.162773
0.150214
0.135793
0.106477
0.0847418
0.0712831
0.0624695
0.0597524
0.0632049
0.107979
0.124969
0.139257
0.131244
0.114382
0.094316
0.0814197
0.0895201
0.127779
0.11072
0.0314191
0.0406004
0.0526373
0.0775976
0.102583
0.124803
0.139628
0.14408
0.139921
0.129628
0.10348
0.0764554
0.0920334
0.0460087
0.14785
0.16164
0.17898
0.179717
0.176501
0.171001
0.160186
0.148984
0.132476
0.100821
0.0634375
0.0720196
0.0662581
0.125259
0.187843
0.188927
0.186342
0.182647
0.178031
0.173208
0.16793
0.160551
0.143285
0.116218
0.0873282
0.0420578
0.147255
0.0739812
0.13138
0.193367
0.199938
0.194902
0.188191
0.182797
0.179352
0.177787
0.176258
0.173371
0.163258
0.134719
0.0959935
0.0542419
0.0334133
0.142224
0.201957
0.214149
0.214314
0.206339
0.19931
0.197207
0.20091
0.207583
0.212386
0.209609
0.198738
0.172871
0.134774
0.0766284
0.0267538
0.108954
0.0700753
0.209083
0.227987
0.23742
0.23619
0.229362
0.225396
0.229748
0.243262
0.262417
0.281356
0.285336
0.270214
0.241999
0.20149
0.137997
0.0676839
0.00875555
0.0859573
0.0933573
0.229231
0.250442
0.261909
0.263361
0.260382
0.260993
0.269736
0.287259
0.309729
0.335083
0.356598
0.35518
0.328176
0.275081
0.222092
0.142359
0.0222645
0.0471678
0.156713
0.241389
0.270095
0.286082
0.29173
0.294121
0.300003
0.312178
0.331517
0.350376
0.367903
0.384628
0.395952
0.39161
0.353133
0.276066
0.217989
0.0760154
0.107724
0.0413855
0.174693
0.254025
0.289514
0.309698
0.319458
0.327228
0.338721
0.35414
0.370529
0.383759
0.393771
0.40397
0.416565
0.423675
0.399239
0.319435
0.258365
0.17428
0.135183
0.0491714
0.187451
0.265633
0.308998
0.332537
0.344994
0.357826
0.37304
0.388348
0.400904
0.408684
0.412848
0.41777
0.427208
0.434523
0.409545
0.313899
0.249856
0.228436
0.175049
0.0562939
0.193766
0.274764
0.325954
0.352709
0.36753
0.382408
0.398158
0.411229
0.419531
0.422483
0.422544
0.424287
0.43107
0.434134
0.395791
0.280481
0.223538
0.231217
0.0445604
0.175704
0.273291
0.331983
0.363311
0.3812
0.396725
0.411185
0.421239
0.425363
0.424259
0.421712
0.421498
0.425336
0.420055
0.361186
0.289684
0.203108
0.21723
0.135967
0.0986029
0.234693
0.307773
0.349979
0.375627
0.394022
0.408453
0.41687
0.418041
0.414283
0.410257
0.409268
0.409709
0.386912
0.288699
0.217759
0.19585
0.187173
0.197416
0.0676473
0.120685
0.214737
0.276122
0.319342
0.350824
0.374379
0.388032
0.391306
0.387966
0.384137
0.382961
0.376305
0.319888
0.260612
0.164578
0.187059
0.154431
0.0980309
0.0996429
0.118373
0.159342
0.214262
0.267213
0.30442
0.322623
0.327356
0.32704
0.324771
0.2967
0.263944
0.144997
0.160093
0.161558
0.140077
0.1265
0.111047
0.0926407
0.0909382
0.105758
0.136638
0.175314
0.203092
0.216543
0.221148
0.214861
0.203874
0.110127
0.13
0.15516
0.0944789
0.114724
0.099348
0.0892304
0.0888307
0.0932413
0.102344
0.107267
0.105944
0.108474
0.111556
0.0742637
0.117809
0.132968
0.128992
0.115037
0.105031
0.0901244
0.0815915
0.0764668
0.0707157
0.0636658
0.0813819
0.111357
0.098311
0.118379
0.111558
0.100177
0.0851131
0.0758698
0.0860002
0.101308
0.0637229
0.0399391
0.0415312
0.0517941
0.0932704
0.116516
0.129322
0.138158
0.144856
0.143371
0.134213
0.106529
0.0772788
0.094088
0.0564474
0.164242
0.173564
0.185699
0.183477
0.179471
0.173116
0.16602
0.156223
0.141067
0.106207
0.0650146
0.0771768
0.0780758
0.141295
0.201835
0.197665
0.188522
0.179386
0.171255
0.165027
0.160448
0.155669
0.148132
0.126492
0.0981365
0.0494522
0.12969
0.0833182
0.136826
0.201487
0.2105
0.200941
0.186984
0.174532
0.16577
0.16112
0.159626
0.159511
0.152695
0.13418
0.100934
0.0632765
0.0354779
0.143269
0.2048
0.223726
0.226194
0.214256
0.200115
0.191288
0.190243
0.194438
0.19916
0.197507
0.185753
0.160918
0.125358
0.0742803
0.0283875
0.164457
0.0857954
0.207686
0.233376
0.249941
0.250681
0.240611
0.231163
0.230818
0.241969
0.260528
0.280502
0.282273
0.264694
0.231266
0.186681
0.122633
0.0577706
0.00761217
0.131584
0.105684
0.230683
0.25877
0.275943
0.277783
0.272458
0.270436
0.277427
0.294198
0.317091
0.34468
0.360621
0.352577
0.31675
0.261391
0.205199
0.118557
0.016173
0.0719709
0.159741
0.246805
0.281215
0.299521
0.304106
0.305093
0.311418
0.324758
0.344354
0.363159
0.380222
0.393541
0.399138
0.38758
0.340899
0.258501
0.196448
0.0554913
0.14822
0.0479478
0.176057
0.262901
0.303361
0.323148
0.330777
0.338445
0.352374
0.371167
0.388443
0.400789
0.40858
0.415127
0.422125
0.421059
0.385693
0.302847
0.247051
0.14406
0.176583
0.049009
0.189084
0.278333
0.325149
0.347016
0.357943
0.371861
0.390609
0.409691
0.423514
0.430289
0.431781
0.432738
0.435766
0.433195
0.393635
0.295209
0.241485
0.209162
0.209207
0.0558893
0.195261
0.290184
0.344686
0.36927
0.383325
0.40056
0.419977
0.436706
0.446303
0.448382
0.445767
0.443489
0.442775
0.432064
0.374266
0.26262
0.217036
0.218002
0.0531127
0.179743
0.288994
0.351102
0.381658
0.399699
0.417798
0.435457
0.448717
0.454216
0.452544
0.446977
0.442025
0.436624
0.412342
0.329105
0.26871
0.199664
0.207028
0.152338
0.10365
0.245246
0.325953
0.370058
0.395674
0.415149
0.43134
0.441943
0.444613
0.440072
0.432853
0.426354
0.413527
0.36464
0.253199
0.204478
0.193599
0.180597
0.202509
0.0716515
0.131618
0.243192
0.306408
0.346497
0.374286
0.394982
0.407926
0.411715
0.407706
0.400713
0.391744
0.36142
0.275348
0.227124
0.169841
0.185646
0.15338
0.0808918
0.122113
0.166785
0.214832
0.257785
0.294899
0.322248
0.336668
0.339849
0.336267
0.318871
0.25111
0.214612
0.13951
0.161877
0.156673
0.149557
0.12953
0.108565
0.0922422
0.0969907
0.116065
0.146349
0.180506
0.207994
0.222884
0.224938
0.187338
0.158756
0.102182
0.131848
0.142113
0.122162
0.118937
0.0962911
0.0833406
0.0856523
0.0937107
0.107372
0.117756
0.119786
0.121099
0.0995676
0.0832584
0.112048
0.113265
0.116483
0.0999015
0.0858247
0.0817271
0.0835872
0.0843165
0.0799858
0.0659453
0.0874342
0.0959042
0.0774566
0.0953547
0.0971137
0.0938991
0.0853871
0.0809672
0.0831985
0.0712569
0.0419942
0.0547634
0.0476036
0.051372
0.0954106
0.130376
0.144598
0.143724
0.14324
0.141597
0.134041
0.108206
0.0799957
0.0904992
0.0650966
0.179994
0.190867
0.193486
0.184538
0.176407
0.167842
0.163016
0.15488
0.14356
0.112858
0.0700927
0.0840527
0.0892533
0.146012
0.21192
0.206239
0.191696
0.175751
0.162016
0.151592
0.144683
0.139307
0.140051
0.125383
0.104511
0.0558038
0.114787
0.087961
0.133621
0.204965
0.221528
0.210814
0.191175
0.171715
0.157036
0.147904
0.143136
0.140666
0.133216
0.122317
0.0977436
0.0699959
0.0436207
0.13285
0.201469
0.231532
0.240325
0.227208
0.207806
0.19282
0.186688
0.18745
0.189256
0.185194
0.169065
0.142935
0.109995
0.0694351
0.0324214
0.193099
0.082042
0.195535
0.233609
0.260229
0.264503
0.252659
0.239845
0.236448
0.244919
0.261832
0.278934
0.275739
0.253072
0.214068
0.166325
0.104599
0.0476969
0.00733271
0.187689
0.108398
0.223237
0.263079
0.28653
0.288425
0.280708
0.277719
0.28513
0.301901
0.324397
0.349377
0.355784
0.340385
0.29844
0.241454
0.181333
0.094269
0.0121217
0.119326
0.150752
0.246102
0.29043
0.311232
0.313449
0.312424
0.319183
0.334053
0.354189
0.372358
0.385099
0.392221
0.392274
0.373637
0.316493
0.233793
0.166833
0.0377748
0.19613
0.0738406
0.166033
0.26875
0.317303
0.337148
0.342366
0.348746
0.362688
0.38252
0.399712
0.409912
0.413352
0.415037
0.416489
0.407117
0.360272
0.278108
0.22635
0.107292
0.22789
0.0602918
0.182353
0.290207
0.343375
0.364648
0.374706
0.387932
0.406426
0.425262
0.437792
0.441451
0.438636
0.434759
0.431713
0.418396
0.36369
0.269361
0.22891
0.177199
0.24853
0.0663757
0.194317
0.306654
0.366057
0.391151
0.405878
0.423366
0.442597
0.458204
0.465435
0.463811
0.456528
0.448523
0.439529
0.413521
0.337284
0.239435
0.207502
0.193326
0.0801411
0.182188
0.307607
0.374099
0.406746
0.427021
0.446606
0.464153
0.475883
0.47846
0.472694
0.461832
0.449413
0.431389
0.38585
0.285937
0.240573
0.19231
0.183801
0.181895
0.106895
0.264763
0.349364
0.396361
0.424753
0.44621
0.461737
0.470431
0.470365
0.461565
0.447565
0.430611
0.399763
0.324848
0.217347
0.188794
0.184152
0.158794
0.207977
0.0843271
0.151973
0.275124
0.338692
0.378971
0.405989
0.423868
0.432606
0.432616
0.424068
0.409394
0.385641
0.328597
0.227836
0.192041
0.166612
0.173544
0.150986
0.0824028
0.156526
0.222486
0.268883
0.304065
0.32939
0.345312
0.351787
0.348855
0.336422
0.297584
0.206125
0.172695
0.136299
0.151174
0.141973
0.1472
0.112608
0.0905373
0.100377
0.119991
0.146584
0.174677
0.199734
0.218003
0.226664
0.222389
0.158805
0.12699
0.102767
0.123449
0.124232
0.126494
0.110891
0.0906397
0.084751
0.0932691
0.100056
0.112518
0.122174
0.124671
0.125812
0.0880849
0.08641
0.10019
0.0956871
0.101236
0.0907108
0.0837951
0.0809849
0.0838393
0.0874937
0.0858357
0.0709884
0.081342
0.0801126
0.0642212
0.0768118
0.0764424
0.0783289
0.0757932
0.0665969
0.0517132
0.0412349
0.0320021
0.0703502
0.0619315
0.0567088
0.0850816
0.141124
0.165163
0.159139
0.148243
0.138535
0.127986
0.102895
0.0772147
0.0834378
0.0676093
0.188979
0.203909
0.199782
0.185663
0.172291
0.159862
0.153373
0.143305
0.132388
0.108859
0.0710515
0.093912
0.0972634
0.146136
0.221907
0.216276
0.197991
0.17647
0.156932
0.141292
0.129572
0.119767
0.117653
0.106099
0.096802
0.0570021
0.114623
0.0918304
0.13018
0.209442
0.236313
0.226696
0.203035
0.177328
0.156678
0.142767
0.133658
0.125374
0.113006
0.0972355
0.0791317
0.0629685
0.0622857
0.121478
0.197765
0.240463
0.25686
0.243121
0.219454
0.199154
0.188183
0.185124
0.183435
0.174012
0.152807
0.123856
0.0917589
0.0550935
0.0302629
0.202075
0.0773504
0.183853
0.233989
0.270686
0.277556
0.262642
0.246364
0.24041
0.24691
0.261532
0.272565
0.263675
0.235513
0.192528
0.144665
0.0862671
0.0371395
0.00752025
0.216116
0.10343
0.218253
0.269464
0.298084
0.298144
0.286372
0.281137
0.288513
0.305237
0.326376
0.342687
0.342344
0.320249
0.27348
0.215417
0.154982
0.0751626
0.0106019
0.181589
0.146718
0.251613
0.303831
0.325325
0.324102
0.319565
0.32412
0.338436
0.357165
0.373667
0.379766
0.38082
0.375271
0.348164
0.277851
0.207289
0.135362
0.0272779
0.231203
0.131654
0.165294
0.283184
0.336649
0.355258
0.357816
0.360739
0.371006
0.388228
0.403673
0.410585
0.408513
0.404467
0.399836
0.382071
0.325972
0.248087
0.197685
0.0741237
0.269979
0.104347
0.188587
0.310829
0.367282
0.387995
0.396731
0.406127
0.420536
0.435894
0.444849
0.443695
0.435442
0.425982
0.41617
0.392207
0.32687
0.242869
0.211861
0.133418
0.274935
0.107434
0.207987
0.330664
0.39308
0.419539
0.434968
0.449258
0.464487
0.47576
0.477911
0.470093
0.456833
0.442328
0.424188
0.384209
0.298766
0.217644
0.194595
0.157665
0.123571
0.200768
0.333696
0.403953
0.439475
0.462083
0.480466
0.494896
0.501571
0.497815
0.48459
0.466557
0.445206
0.414525
0.352027
0.249364
0.21517
0.180499
0.150448
0.203221
0.146856
0.297262
0.379769
0.429791
0.461788
0.484172
0.497876
0.501702
0.49526
0.478133
0.454617
0.42531
0.377121
0.286953
0.192452
0.174759
0.168326
0.127382
0.210563
0.102182
0.194263
0.30587
0.370939
0.414752
0.442999
0.458652
0.46252
0.455944
0.438729
0.413038
0.373477
0.297917
0.197616
0.16918
0.156586
0.154712
0.152129
0.0981758
0.185125
0.257315
0.307415
0.342278
0.363102
0.371477
0.369566
0.357859
0.333636
0.276743
0.182123
0.150322
0.131268
0.135551
0.121572
0.143764
0.107846
0.0917651
0.123087
0.155867
0.187161
0.211437
0.226825
0.233754
0.232786
0.217391
0.145476
0.116137
0.101625
0.112446
0.107509
0.122679
0.0970964
0.0839791
0.093736
0.113775
0.116306
0.125831
0.131181
0.122797
0.123021
0.0861602
0.0833899
0.0885891
0.0830284
0.0950646
0.0803392
0.0763576
0.0793395
0.0859013
0.0905773
0.0844145
0.0712927
0.0655203
0.0647384
0.0543222
0.0769064
0.0706843
0.0664674
0.059833
0.0460927
0.0322704
0.0242999
0.0258551
0.0800273
0.0767485
0.0693859
0.0644932
0.14449
0.180375
0.172446
0.158953
0.143088
0.126008
0.0974358
0.0700671
0.0796502
0.0660697
0.192362
0.213191
0.204721
0.187441
0.17068
0.155184
0.145922
0.132231
0.117852
0.0950916
0.062276
0.104451
0.100793
0.142549
0.233625
0.230731
0.211199
0.185857
0.161406
0.141339
0.125392
0.111558
0.100131
0.085989
0.0777945
0.045778
0.125907
0.0993509
0.126736
0.216476
0.254347
0.247979
0.222426
0.191607
0.165333
0.14707
0.134594
0.121872
0.105854
0.0810896
0.061112
0.0452541
0.0964143
0.116592
0.197439
0.251924
0.275581
0.260741
0.232189
0.206417
0.190838
0.184047
0.179023
0.166205
0.143407
0.114865
0.0851192
0.0438882
0.0183015
0.212839
0.0863225
0.180336
0.239148
0.285077
0.292663
0.272013
0.24949
0.239331
0.243076
0.254823
0.259516
0.246748
0.215502
0.172195
0.128748
0.0785607
0.0341113
0.00620714
0.23856
0.106728
0.223557
0.282627
0.314811
0.310912
0.292386
0.281668
0.286317
0.301765
0.320024
0.32811
0.322232
0.294776
0.244283
0.187428
0.131971
0.0627833
0.00929765
0.242527
0.163008
0.268234
0.324206
0.344676
0.338485
0.327967
0.327161
0.338246
0.354504
0.365075
0.366735
0.361669
0.349158
0.311508
0.238392
0.178739
0.107926
0.0208672
0.251388
0.216796
0.186955
0.3076
0.361926
0.378383
0.376692
0.373857
0.378177
0.390188
0.401938
0.403938
0.396621
0.385775
0.373696
0.347913
0.286555
0.214016
0.164304
0.0502074
0.297453
0.179662
0.213512
0.338435
0.396034
0.415572
0.420431
0.423672
0.43127
0.441591
0.445247
0.438804
0.424399
0.408276
0.390842
0.358199
0.288635
0.217172
0.189286
0.0913003
0.289289
0.172558
0.234215
0.358389
0.424261
0.451173
0.463377
0.472671
0.48174
0.486628
0.481584
0.467375
0.447591
0.426176
0.399449
0.350258
0.265148
0.197684
0.177472
0.117519
0.182636
0.2309
0.360178
0.437157
0.474995
0.496381
0.511338
0.520331
0.519152
0.506314
0.485615
0.460484
0.431039
0.389823
0.31938
0.22333
0.194838
0.164117
0.113861
0.218742
0.194606
0.319996
0.408212
0.464216
0.498935
0.520718
0.530399
0.526466
0.509374
0.48391
0.451887
0.411314
0.351591
0.259478
0.1768
0.161872
0.148483
0.0952201
0.206201
0.127346
0.216542
0.331481
0.400427
0.448987
0.478881
0.492156
0.490422
0.474717
0.44682
0.410007
0.357339
0.275148
0.182453
0.155978
0.142931
0.132854
0.155675
0.115559
0.213494
0.287982
0.339663
0.375023
0.392989
0.396067
0.387428
0.363714
0.327169
0.259598
0.172586
0.141889
0.123473
0.119025
0.0990723
0.143984
0.108948
0.10675
0.146933
0.186322
0.220645
0.242901
0.25225
0.251866
0.237482
0.208795
0.140317
0.115714
0.0982443
0.10068
0.0910057
0.120842
0.0942841
0.088549
0.110682
0.139586
0.138747
0.14483
0.142779
0.124962
0.121114
0.0890591
0.0769581
0.0758523
0.070628
0.091655
0.0751662
0.0741134
0.081386
0.088396
0.0885745
0.0757507
0.0589408
0.0475974
0.0488239
0.0444177
0.0779157
0.0694393
0.0624393
0.0542931
0.0403931
0.0267322
0.0175183
0.0209827
0.0830114
0.0848102
0.0787952
0.0455188
0.139361
0.187066
0.17918
0.164975
0.148747
0.129434
0.0986157
0.0638768
0.0900224
0.0576413
0.186269
0.21706
0.210946
0.193175
0.173789
0.155251
0.141389
0.126445
0.108701
0.0828044
0.051158
0.114315
0.0983911
0.131319
0.242218
0.246427
0.230801
0.204857
0.177006
0.152815
0.133473
0.117296
0.097183
0.0783297
0.0624525
0.0300278
0.133464
0.110485
0.120605
0.221742
0.27187
0.27158
0.246861
0.212238
0.18062
0.158339
0.142998
0.129182
0.113813
0.0863166
0.0622789
0.0329983
0.134734
0.120449
0.198778
0.265157
0.296823
0.280847
0.246149
0.213129
0.192095
0.181907
0.174195
0.160637
0.139622
0.11521
0.0910303
0.055517
0.0203061
0.220399
0.108604
0.188745
0.249913
0.304873
0.312431
0.284136
0.252156
0.234366
0.233151
0.240312
0.240914
0.226788
0.195816
0.155139
0.117303
0.0768593
0.035517
0.00518451
0.260757
0.132625
0.242495
0.303186
0.337565
0.32841
0.301044
0.281733
0.28005
0.291672
0.302868
0.306901
0.297248
0.266443
0.215165
0.162194
0.114301
0.0559826
0.00854142
0.277972
0.204232
0.296172
0.350439
0.368707
0.35658
0.338185
0.329991
0.335207
0.344871
0.350758
0.348685
0.337572
0.316505
0.271023
0.203529
0.152125
0.0876581
0.0178247
0.259899
0.302103
0.224458
0.339159
0.390928
0.404201
0.396633
0.386276
0.383925
0.389516
0.393813
0.392228
0.380538
0.362217
0.341134
0.307043
0.242847
0.183462
0.13183
0.0371772
0.298316
0.277219
0.242071
0.369161
0.426693
0.442993
0.441495
0.437115
0.437615
0.440857
0.439071
0.428287
0.40777
0.383599
0.357633
0.317741
0.249353
0.191639
0.161472
0.062299
0.28585
0.258401
0.25379
0.384816
0.455503
0.48009
0.486498
0.48836
0.49048
0.488314
0.477021
0.456317
0.429196
0.400142
0.365786
0.311728
0.233396
0.177967
0.156763
0.0836681
0.250853
0.250734
0.379254
0.466771
0.506094
0.523855
0.533344
0.535151
0.523903
0.502122
0.47329
0.440993
0.405071
0.356355
0.285414
0.201491
0.176697
0.144145
0.0826626
0.235975
0.22265
0.32866
0.427984
0.493028
0.529901
0.549211
0.551711
0.535063
0.50675
0.472506
0.434382
0.385429
0.319913
0.234543
0.16452
0.149116
0.12592
0.0684113
0.205129
0.160235
0.244906
0.34176
0.419551
0.476512
0.508608
0.517791
0.505539
0.47762
0.440446
0.393931
0.331602
0.249649
0.170691
0.147064
0.12771
0.110138
0.157915
0.14462
0.234494
0.298712
0.358976
0.400311
0.418727
0.4183
0.396958
0.360805
0.311763
0.237474
0.161376
0.136866
0.114064
0.100868
0.0765818
0.141729
0.117967
0.121693
0.15864
0.203168
0.243288
0.267251
0.27378
0.266667
0.238453
0.196597
0.132042
0.113215
0.0921774
0.0845284
0.071684
0.120485
0.0999235
0.099013
0.12865
0.1652
0.165907
0.16707
0.154585
0.126308
0.117768
0.0836995
0.0644069
0.0585993
0.0536544
0.0920636
0.0790231
0.082865
0.0928199
0.0965287
0.0865885
0.0665608
0.0470284
0.0342859
0.034763
0.032828
0.0761776
0.0673048
0.0605284
0.0512839
0.0366993
0.0240803
0.0153388
0.0168934
0.0774135
0.0852424
0.0820368
0.0310039
0.121756
0.181928
0.178726
0.165616
0.14841
0.127791
0.0992265
0.0600536
0.10006
0.0473812
0.167127
0.210075
0.215146
0.203087