/*--------------------------------*- C++ -*----------------------------------*\
| =========                 |                                                 |
| \\      /  F ield         | OpenFOAM: The Open Source CFD Toolbox           |
|  \\    /   O peration     | Version:  2406                                  |
|   \\  /    A nd           | Website:  www.openfoam.com                      |
|    \\/     M anipulation  |                                                 |
\*---------------------------------------------------------------------------*/
FoamFile
{
    version     2.0;
    format      ascii;
    arch        "LSB;label=32;scalar=64";
    class       volScalarField;
    location    "200";
    object      p;
}
// * * * * * * * * * * * * * * * * * * * * * * * * * * * * * * * * * * * * * //

dimensions      [0 2 -2 0 0 0 0];

internalField   nonuniform List<scalar> 
238188
(
198.878
288.508
388.444
534.714
214.641
294.405
388.787
531.989
747.933
190.647
278.963
380.642
544.473
778.451
153.42
237.749
380.109
589.62
826.874
233.797
225.922
190.598
161.28
169.694
207.635
277.516
160.655
159.277
164.112
183.12
255.03
161.163
159.839
159.094
162.889
163.245
159.094
177.409
177.241
177.265
177.487
177.573
177.301
177.037
176.791
176.622
176.512
176.531
176.369
174.888
175.71
176.228
177.457
176.94
176.368
175.909
175.54
175.313
175.261
175.345
175.604
175.921
173.686
173.404
175.196
175.929
177.11
176.28
175.339
174.902
174.48
174.164
173.995
173.983
174.233
175.045
176.046
174.053
146.903
174.516
179.091
175.737
177.429
173.209
173.343
173.825
173.641
173.391
173.14
172.917
172.938
173.511
174.731
104.429
171.501
181.067
167.15
172.098
175.509
166.926
170.985
172.985
173.02
172.791
172.433
172.047
171.734
171.74
172.525
174.441
280.868
79.769
188.117
173.808
166.759
169.607
172.72
170.79
172.834
172.769
172.668
172.229
171.704
171.241
170.747
170.439
170.772
172.174
174.615
212.494
102.371
177.271
173.575
169.909
169.473
172.385
173.679
173.337
172.829
172.42
171.621
171.068
170.653
170.275
169.943
169.92
170.932
173.899
192.022
127.318
171.12
177.279
175.726
173.768
174.498
174.158
173.369
172.799
172.157
171.168
170.804
170.662
170.551
170.299
170.201
170.624
172.788
218.493
186.466
145.321
167.289
178.163
175.609
175.355
174.901
174.099
173.29
172.667
171.864
170.683
170.793
170.823
170.762
170.651
170.615
170.773
172.17
210.986
184.283
157.542
164.811
176.949
175.868
175.328
174.734
173.975
173.181
172.46
171.54
170.635
170.85
170.938
170.916
170.886
170.915
171.064
172.019
203.02
184.262
166.697
164.278
177.983
175.709
175.069
174.521
173.867
173.136
172.294
171.396
170.779
170.886
171.038
171.095
171.133
171.225
171.391
172.549
183.08
173.55
165.531
176.288
175.345
174.83
174.304
173.809
173.229
172.289
171.646
171.126
171.019
171.162
171.303
171.412
171.576
171.759
172.734
188.672
178.638
169.019
173.08
175.522
174.583
174.194
173.777
173.385
172.738
172.092
171.669
171.38
171.4
171.513
171.696
172.022
172.303
175.724
209.797
181.626
174.522
172.039
176.399
174.32
174.174
173.889
173.594
173.26
172.629
172.263
171.942
171.799
171.707
171.881
172.526
173.76
187.882
179.36
174.352
176.847
175.485
174.178
174.106
173.986
173.745
173.251
172.804
172.504
172.289
172.008
172.097
173.222
176.339
196.492
184.142
178.652
178.518
178.887
174.816
174.213
174.502
174.46
174.046
173.464
173.154
172.922
172.588
172.73
174.958
195.323
185.126
181.979
183.23
178.812
175.424
175.257
175.516
175.082
174.545
174.096
173.639
173.468
175.095
192.616
188.39
185.969
179.801
177.619
177.092
176.317
175.564
175.157
174.993
176.494
203.205
194.413
187.542
181.381
178.969
177.639
176.96
177.775
177.304
177.188
177.083
177.581
177.388
177.1
176.823
176.616
176.455
176.332
176.484
176.453
174.037
175.744
176.79
176.89
176.58
176.118
175.696
175.361
175.213
175.202
175.288
175.621
175.776
174.747
175.03
175.543
176.366
176.494
175.888
175.259
174.793
174.385
174.119
173.982
174.008
174.127
174.769
175.766
261.108
180.033
175.509
175.684
176.313
176.35
174.783
174.242
173.951
173.607
173.326
173.053
172.811
172.795
173.289
174.525
246.603
181.174
174.804
175.075
175.954
175.05
173.562
173.391
173.249
172.981
172.675
172.28
171.872
171.553
171.621
172.464
174.174
307.227
185.354
177.718
175.457
175.725
175.077
175.922
173.433
173.167
172.83
172.511
172.067
171.54
171.057
170.667
170.451
170.8
172.185
174.533
242.363
164.706
173.58
175.339
174.131
173.777
173.947
173.591
173.12
172.62
172.168
171.553
170.988
170.543
170.229
170.039
170.112
170.877
173.329
193.927
159.991
171.634
175.69
174.411
174.023
174.155
173.721
173.073
172.482
171.906
171.226
170.776
170.497
170.324
170.204
170.227
170.651
172.282
211.787
183.299
164.612
172.383
175.406
174.984
174.685
174.296
173.712
172.989
172.344
171.688
171.038
170.811
170.661
170.557
170.489
170.519
170.78
171.737
197.14
180.376
168.25
173.227
175.451
175.221
174.788
174.304
173.651
172.908
172.212
171.542
171.031
170.892
170.814
170.775
170.763
170.815
170.984
171.671
190.301
180.646
171.031
172.956
175.644
175.214
174.719
174.215
173.601
172.891
172.17
171.549
171.118
170.961
170.961
171.003
171.064
171.163
171.308
172.21
181.807
174.663
172.728
175.264
175.122
174.59
174.109
173.6
172.992
172.292
171.726
171.302
171.087
171.105
171.216
171.362
171.566
171.851
172.619
183.234
177.894
173.853
174.801
174.963
174.475
174.055
173.654
173.208
172.634
172.068
171.65
171.383
171.343
171.455
171.674
171.978
172.436
174.046
184.789
180.261
176.277
174.647
174.77
174.416
174.092
173.794
173.499
173.116
172.601
172.189
171.898
171.761
171.791
172.011
172.452
173.001
182.52
179.28
175.78
174.966
174.593
174.19
174.042
173.902
173.669
173.292
172.883
172.596
172.391
172.345
172.568
173.103
174.49
186.555
183.533
179.729
177.049
176.171
174.564
174.257
174.36
174.335
174.069
173.713
173.446
173.202
173.114
173.365
174.027
185.809
184.416
181.123
180.818
177.47
174.867
174.762
174.971
174.801
174.596
174.396
174.104
173.991
174.201
184.685
185.106
184.077
179.663
176.931
176.205
175.826
175.592
175.438
175.07
174.878
191.498
190.098
186.814
182.157
178.898
177.217
176.503
176.65
177.266
177.166
177.078
177.843
177.374
177.068
176.822
176.61
176.48
176.324
176.468
176.489
174.805
175.248
176.742
176.741
176.175
175.835
175.514
175.271
175.357
175.37
175.373
175.673
175.834
177.115
176.111
176.009
176.13
175.885
175.46
175.036
174.659
174.332
174.038
173.838
174.14
174.259
174.846
175.82
196.842
177.5
176.705
176.019
175.833
175.346
174.728
174.238
173.816
173.435
173.097
172.764
172.5
172.915
173.477
174.593
188.596
177.223
176.297
175.628
175.273
174.782
174.052
173.562
173.099
172.661
172.238
171.796
171.44
171.275
171.602
172.819
174.365
230.363
179.324
177.235
176.153
175.542
174.705
174.357
173.651
173.117
172.581
172.078
171.543
171.026
170.634
170.436
170.545
171.192
172.381
174.722
214.756
178.248
176.392
175.31
174.964
174.407
173.936
173.413
172.834
172.271
171.716
171.113
170.582
170.231
170.073
170.064
170.274
170.866
173.327
186.782
175.4
175.102
174.562
174.62
174.216
173.833
173.286
172.671
172.093
171.516
170.929
170.492
170.244
170.164
170.164
170.339
170.697
172.253
202.289
180.004
175.614
175.372
174.878
174.726
174.252
173.793
173.194
172.561
171.971
171.413
170.885
170.567
170.418
170.38
170.406
170.541
170.749
171.601
188.275
177.916
175.95
175.724
175.147
174.751
174.239
173.73
173.123
172.489
171.898
171.39
170.949
170.729
170.65
170.648
170.703
170.85
170.984
171.567
182.654
177.363
175.964
175.771
175.169
174.7
174.177
173.664
173.088
172.484
171.905
171.446
171.092
170.926
170.905
170.958
171.054
171.212
171.3
171.869
177.167
175.936
175.662
175.134
174.637
174.123
173.639
173.131
172.593
172.047
171.611
171.322
171.178
171.183
171.259
171.375
171.442
171.76
172.572
177.557
176.178
175.589
175.157
174.636
174.132
173.691
173.267
172.832
172.362
171.934
171.662
171.529
171.527
171.619
171.78
171.904
172.266
173.869
179.161
176.294
175.74
175.243
174.673
174.253
173.897
173.532
173.189
172.821
172.44
172.153
172.009
171.995
172.083
172.111
172.327
172.697
177.693
175.821
175.125
174.729
174.203
174.016
173.886
173.695
173.413
173.113
172.835
172.668
172.65
172.508
172.727
173.068
174.108
180.911
178.345
175.608
175.048
174.716
174.279
174.126
174.126
173.976
173.798
173.592
173.412
173.19
173.357
173.608
174.015
181.523
179.064
176.577
175.869
175.142
174.713
174.705
174.573
174.426
174.275
174.136
174.118
174.189
174.549
181.32
180.075
179.105
176.926
175.579
175.201
175.111
175.04
174.966
174.788
175.154
183.474
184.462
182.916
180.385
178.007
176.555
175.85
176.365
177.196
177.102
177.031
177.882
177.38
177.035
176.799
176.591
176.481
176.329
176.444
176.454
175.054
175.177
176.694
176.665
176.134
175.845
175.556
175.339
175.472
175.467
175.41
175.638
175.728
177.247
176.129
175.984
175.989
175.783
175.461
175.084
174.721
174.418
174.112
173.88
174.275
174.369
174.839
175.775
178.569
177.273
176.493
175.94
175.684
175.297
174.805
174.3
173.824
173.412
173.019
172.671
172.433
173.023
173.616
174.703
178.104
177.205
176.129
175.756
175.303
174.785
174.17
173.57
172.988
172.444
171.942
171.523
171.208
171.124
171.572
173.014
174.58
184.494
177.343
176.501
175.808
175.422
174.863
174.324
173.664
173.004
172.359
171.745
171.168
170.705
170.382
170.285
170.485
171.32
172.532
174.959
179.306
176.197
176.037
175.231
174.905
174.414
173.896
173.283
172.631
171.989
171.375
170.79
170.323
170.04
169.935
169.962
170.276
170.852
173.441
176.404
175.546
175.419
174.782
174.542
174.096
173.616
173.029
172.399
171.788
171.204
170.666
170.283
170.084
170.041
170.076
170.276
170.672
172.208
185.796
176.363
175.404
175.221
174.753
174.428
173.949
173.444
172.853
172.242
171.658
171.122
170.653
170.364
170.242
170.253
170.326
170.494
170.696
171.463
181.65
176.421
175.552
175.248
174.791
174.369
173.853
173.317
172.728
172.138
171.589
171.116
170.735
170.534
170.473
170.518
170.619
170.8
170.947
171.488
179.519
176.467
175.655
175.276
174.8
174.327
173.782
173.232
172.662
172.106
171.599
171.19
170.892
170.754
170.75
170.84
170.976
171.165
171.275
171.799
176.473
175.911
175.306
174.813
174.307
173.758
173.223
172.697
172.192
171.729
171.372
171.141
171.046
171.072
171.172
171.309
171.361
171.704
172.469
176.333
176.02
175.458
174.949
174.385
173.828
173.321
172.854
172.421
172.014
171.693
171.498
171.426
171.461
171.571
171.723
171.804
172.177
173.672
177.694
176.197
175.816
175.127
174.545
174.044
173.579
173.15
172.786
172.441
172.157
171.98
171.916
171.949
172.06
172.064
172.235
172.615
176.442
176.158
175.507
174.776
174.245
173.86
173.559
173.307
173.014
172.763
172.603
172.544
172.597
172.51
172.722
172.969
173.993
179.51
177.584
175.477
175.046
174.59
174.162
173.906
173.789
173.577
173.393
173.276
173.228
173.157
173.368
173.559
173.88
179.637
176.477
175.16
174.776
174.467
174.36
174.257
174.072
173.919
173.863
173.788
173.986
174.166
174.768
177.141
176.293
175.916
175.256
174.716
174.454
174.347
174.354
174.258
174.145
175.872
181.309
179.854
178.864
177.595
176.415
175.478
174.682
176.324
177.077
176.974
176.901
177.706
177.212
176.876
176.681
176.502
176.4
176.261
176.332
176.305
174.914
175.526
176.582
176.515
176.061
175.815
175.564
175.377
175.505
175.502
175.424
175.577
175.624
177.234
175.912
175.877
175.872
175.7
175.439
175.111
174.763
174.47
174.189
173.981
174.374
174.495
174.867
175.669
177.627
176.929
176.239
175.741
175.533
175.197
174.773
174.295
173.783
173.343
172.938
172.629
172.475
173.171
173.789
174.734
177.612
176.845
175.885
175.514
175.12
174.649
174.076
173.454
172.794
172.194
171.658
171.299
171.075
171.137
171.714
173.269
174.771
178.248
177.227
176.162
175.619
175.155
174.662
174.12
173.464
172.767
172.046
171.385
170.82
170.455
170.213
170.203
170.491
171.479
172.875
175.17
176.192
176.28
175.649
175.148
174.723
174.219
173.663
173.019
172.335
171.654
171.027
170.494
170.126
169.913
169.847
169.907
170.253
170.96
173.714
175.767
175.411
175.121
174.705
174.343
173.848
173.308
172.697
172.058
171.438
170.877
170.407
170.099
169.953
169.928
169.973
170.203
170.636
172.352
179.122
176.004
175.239
174.895
174.489
174.099
173.581
173.036
172.444
171.85
171.285
170.79
170.388
170.149
170.07
170.114
170.207
170.409
170.61
171.453
178.531
176.02
175.293
174.893
174.439
173.969
173.402
172.834
172.257
171.702
171.195
170.772
170.453
170.289
170.266
170.35
170.479
170.703
170.836
171.381
177.978
176.004
175.348
174.927
174.444
173.911
173.299
172.709
172.15
171.638
171.183
170.827
170.586
170.492
170.531
170.663
170.827
171.062
171.173
171.66
176.013
175.565
174.993
174.485
173.908
173.275
172.689
172.166
171.699
171.295
170.999
170.829
170.792
170.866
171.01
171.189
171.251
171.623
172.334
175.834
175.644
175.143
174.645
174.017
173.374
172.808
172.33
171.916
171.56
171.306
171.18
171.181
171.279
171.435
171.625
171.724
172.113
173.575
176.823
175.768
175.476
174.916
174.267
173.64
173.097
172.653
172.286
171.974
171.754
171.653
171.665
171.772
171.933
171.953
172.191
172.691
175.983
175.77
175.377
174.511
173.92
173.442
173.08
172.789
172.526
172.329
172.237
172.254
172.387
172.384
172.6
172.93
174.091
178.355
176.431
175.743
174.808
174.257
173.829
173.516
173.304
173.102
172.941
172.863
172.883
172.899
173.167
173.391
173.89
179.012
176.016
174.505
174.416
174.216
173.974
173.812
173.65
173.488
173.394
173.347
173.633
173.981
174.891
175.015
174.945
174.909
174.493
174.19
173.987
173.828
173.796
173.531
174.084
176.551
177.697
176.757
176.051
175.597
175.086
174.441
174.202
176.893
176.951
176.837
176.749
177.48
177.015
176.706
176.543
176.397
176.308
176.179
176.221
176.171
174.729
175.889
176.508
176.415
176.038
175.817
175.584
175.412
175.52
175.528
175.437
175.541
175.546
176.705
175.479
175.713
175.779
175.678
175.468
175.165
174.829
174.536
174.276
174.092
174.483
174.622
174.912
175.577
177.403
176.469
175.841
175.49
175.382
175.124
174.756
174.295
173.779
173.326
172.947
172.681
172.627
173.37
173.999
174.794
177.203
176.35
175.49
175.235
174.925
174.512
173.98
173.341
172.643
172.032
171.511
171.229
171.144
171.311
172.014
173.555
174.945
177.25
176.721
175.658
175.229
174.857
174.436
173.931
173.295
172.566
171.809
171.158
170.644
170.371
170.236
170.29
170.672
171.812
173.326
175.367
176.701
176.047
175.224
174.812
174.42
173.958
173.413
172.766
172.079
171.402
170.809
170.349
170.071
169.925
169.904
169.999
170.418
171.316
174.072
175.052
175.017
174.758
174.4
174.018
173.524
172.965
172.36
171.745
171.158
170.647
170.252
170.019
169.921
169.919
169.98
170.24
170.725
172.66
177.418
175.354
174.829
174.533
174.144
173.701
173.157
172.589
172.023
171.471
170.958
170.52
170.191
170.016
169.984
170.053
170.161
170.389
170.556
171.562
177.419
175.536
174.919
174.523
174.049
173.51
172.905
172.318
171.775
171.275
170.829
170.463
170.212
170.102
170.12
170.238
170.394
170.656
170.755
171.322
177.26
175.606
175.025
174.576
174.036
173.416
172.758
172.146
171.623
171.169
170.779
170.482
170.304
170.264
170.344
170.511
170.707
170.989
171.076
171.558
175.64
175.27
174.674
174.094
173.414
172.714
172.106
171.612
171.196
170.857
170.624
170.517
170.532
170.651
170.843
171.066
171.145
171.528
172.238
175.508
175.339
174.838
174.263
173.537
172.823
172.234
171.769
171.393
171.097
170.91
170.849
170.903
171.046
171.255
171.494
171.629
172.043
173.55
176.309
175.485
175.217
174.55
173.82
173.114
172.529
172.082
171.744
171.492
171.343
171.307
171.373
171.527
171.737
171.787
172.126
172.778
175.806
175.393
175.05
174.138
173.48
172.936
172.528
172.238
172.032
171.902
171.869
171.93
172.099
172.145
172.398
172.918
174.252
177.775
175.75
175.486
174.62
173.955
173.395
173.009
172.763
172.604
172.503
172.474
172.526
172.567
172.824
173.23
174.069
177.157
175.928
175.01
174.359
173.873
173.531
173.33
173.203
173.096
173.004
172.96
173.151
173.83
175.047
175.682
174.674
174.306
173.888
173.759
173.608
173.511
173.417
173.2
174.405
176.897
176.668
175.556
174.524
174.444
174.242
173.904
174.462
177.199
176.844
176.733
176.619
177.267
176.872
176.612
176.452
176.313
176.22
176.092
176.12
176.066
174.654
176.028
176.445
176.372
176.055
175.864
175.643
175.476
175.505
175.514
175.431
175.525
175.505
175.676
174.925
175.454
175.653
175.639
175.497
175.236
174.928
174.641
174.384
174.196
174.536
174.694
174.923
175.52
176.621
175.713
175.234
175.125
175.145
175.004
174.721
174.309
173.834
173.4
173.04
172.799
172.8
173.516
174.128
174.839
176.529
175.622
174.918
174.809
174.637
174.323
173.869
173.267
172.601
172.015
171.547
171.322
171.335
171.571
172.307
173.801
175.081
176.733
176.026
175.034
174.696
174.44
174.12
173.676
173.107
172.416
171.7
171.105
170.672
170.464
170.423
170.532
170.97
172.265
173.803
175.567
176.885
175.648
174.742
174.377
174.033
173.607
173.099
172.504
171.875
171.261
170.744
170.364
170.151
170.075
170.108
170.259
170.831
171.939
174.49
175.019
174.728
174.383
174.041
173.635
173.138
172.599
172.033
171.482
170.969
170.533
170.214
170.049
170.006
170.039
170.144
170.446
171.083
173.155
176.83
174.67
174.478
174.167
173.781
173.279
172.709
172.153
171.634
171.153
170.714
170.346
170.09
169.979
169.998
170.103
170.24
170.495
170.666
171.969
176.845
175.032
174.573
174.156
173.648
173.034
172.407
171.842
171.349
170.914
170.536
170.236
170.048
169.993
170.061
170.221
170.406
170.708
170.793
171.488
176.726
175.256
174.728
174.217
173.598
172.885
172.206
171.628
171.158
170.764
170.439
170.207
170.088
170.099
170.226
170.435
170.664
170.991
171.061
171.633
175.325
175.018
174.313
173.631
172.85
172.13
171.549
171.106
170.747
170.474
170.305
170.252
170.316
170.488
170.726
170.99
171.082
171.481
172.303
175.267
175.133
174.468
173.774
172.965
172.229
171.648
171.219
170.897
170.673
170.555
170.55
170.656
170.851
171.099
171.381
171.554
172.027
173.641
176.224
175.328
174.923
174.035
173.247
172.514
171.929
171.507
171.218
171.035
170.956
170.981
171.101
171.298
171.54
171.608
172.057
172.835
175.653
175.135
174.642
173.652
172.942
172.368
171.961
171.702
171.554
171.497
171.528
171.633
171.812
171.886
172.178
172.928
174.371
177.165
175.492
174.991
174.119
173.438
172.862
172.477
172.239
172.112
172.066
172.082
172.202
172.257
172.479
173.142
174.289
176.443
175.47
174.776
174.029
173.463
173.114
172.92
172.789
172.735
172.635
172.62
172.807
173.742
175.206
175.533
174.592
174.062
173.564
173.402
173.269
173.24
173.061
173.09
174.567
176.836
177.708
175.823
174.414
174.086
174.154
174.35
174.66
176.921
176.775
176.661
176.531
177.106
176.779
176.58
176.431
176.282
176.154
176.014
175.999
175.933
174.802
176.07
176.408
176.336
176.069
175.907
175.716
175.554
175.513
175.477
175.367
175.456
175.456
174.809
174.559
175.239
175.54
175.577
175.49
175.286
175.029
174.775
174.545
174.371
174.564
174.695
174.89
175.519
175.583
174.967
174.643
174.782
174.912
174.876
174.677
174.336
173.932
173.559
173.262
173.083
173.131
173.66
174.165
174.861
175.624
174.886
174.395
174.401
174.356
174.146
173.774
173.251
172.667
172.151
171.781
171.638
171.723
172.022
172.785
174.043
175.296
176.037
175.297
174.48
174.198
174.043
173.819
173.444
172.944
172.336
171.715
171.211
170.873
170.741
170.79
170.965
171.484
172.821
174.383
175.868
176.178
175.091
174.32
173.979
173.678
173.29
172.816
172.289
171.739
171.221
170.8
170.499
170.359
170.364
170.463
170.712
171.457
172.769
174.969
175.471
174.579
174.126
173.732
173.294
172.791
172.278
171.772
171.293
170.866
170.516
170.276
170.187
170.208
170.297
170.463
170.806
171.706
173.775
177.187
174.542
174.369
173.955
173.481
172.909
172.324
171.796
171.336
170.922
170.558
170.264
170.081
170.039
170.117
170.275
170.455
170.741
170.987
172.655
176.638
174.728
174.396
173.892
173.291
172.61
171.982
171.458
171.023
170.643
170.329
170.09
169.964
169.974
170.101
170.311
170.537
170.874
170.975
171.984
176.532
175.058
174.524
173.891
173.168
172.397
171.73
171.2
170.787
170.444
170.18
170.002
169.942
170.014
170.198
170.452
170.724
171.09
171.169
171.963
175.251
174.829
173.922
173.135
172.308
171.612
171.076
170.681
170.373
170.162
170.048
170.051
170.175
170.402
170.684
170.994
171.112
171.536
172.589
175.433
174.922
174.032
173.228
172.385
171.675
171.133
170.748
170.474
170.31
170.251
170.303
170.468
170.715
171
171.33
171.543
172.108
173.852
175.949
175.077
174.494
173.454
172.644
171.933
171.383
171
170.756
170.626
170.608
170.692
170.871
171.114
171.39
171.478
172.03
172.907
175.287
174.714
174.051
173.065
172.365
171.813
171.431
171.207
171.108
171.115
171.208
171.369
171.561
171.675
172.021
172.952
174.457
176.665
175.1
174.42
173.549
172.876
172.327
171.958
171.747
171.647
171.651
171.692
171.901
172.001
172.222
173.096
174.42
175.829
174.957
174.22
173.506
172.982
172.599
172.47
172.395
172.39
172.261
172.25
172.549
173.633
175.227
175
174.086
173.626
173.169
172.997
172.833
172.71
172.788
173.053
174.399
176.449
176.464
175.141
174.32
174.058
174.177
174.368
174.448
176.139
176.738
176.612
176.469
177.039
176.725
176.557
176.423
176.281
176.138
175.993
175.929
175.832
175.115
176.145
176.411
176.297
176.048
175.909
175.755
175.618
175.578
175.518
175.365
175.42
175.485
174.531
174.556
175.208
175.453
175.498
175.444
175.291
175.092
174.895
174.725
174.626
174.74
174.864
175.019
175.741
174.902
174.638
174.413
174.594
174.756
174.778
174.639
174.368
174.04
173.747
173.551
173.481
173.635
174.071
174.536
175.205
174.946
174.526
174.157
174.17
174.183
174.035
173.725
173.283
172.798
172.384
172.132
172.105
172.285
172.694
173.537
174.674
175.834
175.443
174.836
174.235
173.95
173.816
173.636
173.302
172.853
172.324
171.811
171.407
171.17
171.138
171.292
171.578
172.242
173.61
175.085
176.149
175.378
174.702
174.104
173.76
173.459
173.087
172.637
172.155
171.673
171.25
170.918
170.707
170.656
170.753
170.938
171.324
172.244
173.687
175.449
175.385
174.445
173.953
173.519
173.049
172.547
172.055
171.599
171.183
170.833
170.564
170.409
170.397
170.495
170.666
170.9
171.294
172.508
174.429
177.931
174.878
174.275
173.762
173.22
172.614
172.045
171.554
171.14
170.78
170.478
170.255
170.145
170.172
170.319
170.545
170.78
171.098
171.515
173.472
177.2
174.733
174.16
173.586
172.939
172.249
171.659
171.184
170.795
170.463
170.202
170.022
169.962
170.034
170.226
170.496
170.773
171.136
171.299
172.753
176.682
174.942
174.2
173.485
172.726
171.973
171.36
170.882
170.511
170.214
170.004
169.882
169.881
170.009
170.252
170.561
170.882
171.285
171.416
172.569
175.086
174.572
173.462
172.632
171.83
171.192
170.708
170.353
170.092
169.932
169.873
169.929
170.108
170.392
170.724
171.082
171.225
171.72
173.098
175.047
174.589
173.557
172.689
171.867
171.207
170.713
170.367
170.138
170.022
170.017
170.122
170.344
170.648
170.974
171.349
171.615
172.307
174.194
175.7
174.786
174.034
172.89
172.096
171.43
170.924
170.577
170.373
170.288
170.319
170.459
170.693
170.985
171.296
171.445
172.072
173.028
175.132
174.276
173.459
172.492
171.838
171.327
170.974
170.78
170.718
170.768
170.915
171.136
171.35
171.547
171.955
172.999
174.559
176.253
174.679
173.847
172.957
172.339
171.838
171.49
171.301
171.229
171.275
171.356
171.632
171.803
172.046
173.049
174.426
175.207
174.384
173.632
172.996
172.503
172.127
172.002
171.947
171.972
171.899
171.878
172.332
173.518
175.059
174.425
173.597
173.174
172.737
172.547
172.37
172.319
172.696
172.982
173.994
175.826
175.296
174.399
173.798
173.725
173.855
174.01
174.253
175.174
176.686
176.569
176.426
176.974
176.65
176.492
176.374
176.249
176.12
175.99
175.921
175.833
175.263
176.14
176.35
176.208
175.964
175.853
175.738
175.631
175.637
175.609
175.496
175.574
175.747
174.939
174.714
175.218
175.347
175.4
175.377
175.274
175.132
174.988
174.885
174.884
175.059
175.282
175.499
176.182
175.059
174.813
174.545
174.556
174.688
174.741
174.646
174.431
174.168
173.949
173.838
173.862
174.132
174.649
175.261
175.908
174.913
174.644
174.233
174.167
174.165
174.042
173.767
173.384
172.977
172.649
172.499
172.579
172.867
173.388
174.239
175.257
176.227
175.287
174.711
174.303
174.006
173.826
173.628
173.302
172.875
172.397
171.962
171.632
171.478
171.543
171.798
172.2
172.992
174.389
175.698
176.459
174.8
174.511
174.094
173.758
173.426
173.037
172.587
172.124
171.688
171.328
171.061
170.93
170.97
171.162
171.444
171.962
173.06
174.525
175.911
174.679
174.153
173.798
173.402
172.928
172.429
171.951
171.525
171.159
170.863
170.654
170.57
170.632
170.813
171.077
171.377
171.875
173.377
175.092
177.42
174.442
173.886
173.468
172.978
172.407
171.876
171.422
171.043
170.724
170.471
170.304
170.255
170.347
170.567
170.864
171.154
171.526
172.23
174.316
176.414
174.034
173.609
173.153
172.58
171.962
171.435
171.005
170.653
170.367
170.159
170.034
170.025
170.153
170.411
170.744
171.069
171.461
171.775
173.693
175.469
174.179
173.582
172.965
172.277
171.613
171.075
170.651
170.323
170.076
169.918
169.848
169.894
170.072
170.377
170.738
171.105
171.546
171.813
173.414
174.484
174.027
172.918
172.13
171.413
170.849
170.42
170.112
169.902
169.795
169.783
169.886
170.114
170.453
170.828
171.222
171.388
172.048
173.814
174.873
174.189
173.013
172.157
171.405
170.816
170.375
170.077
169.897
169.828
169.867
170.016
170.284
170.638
171
171.413
171.772
172.648
174.698
175.588
174.361
173.494
172.343
171.605
171.001
170.545
170.241
170.077
170.033
170.101
170.282
170.563
170.899
171.241
171.499
172.18
173.277
174.649
173.66
172.878
171.971
171.374
170.905
170.587
170.424
170.389
170.469
170.66
170.941
171.203
171.483
171.965
173.174
174.771
175.414
174.017
173.304
172.46
171.874
171.399
171.073
170.904
170.857
170.936
171.085
171.426
171.602
171.954
173.129
174.433
174.783
173.979
173.19
172.538
172.045
171.702
171.589
171.557
171.631
171.574
171.6
172.142
173.468
174.762
173.921
173.119
172.734
172.316
172.148
172.026
172.138
172.679
172.949
173.666
175.179
174.508
173.749
173.163
173.193
173.425
173.685
174.246
174.635
176.573
176.489
176.371
176.832
176.496
176.353
176.264
176.168
176.062
175.944
175.905
175.893
175.05
176.15
176.212
176.051
175.827
175.752
175.677
175.6
175.649
175.67
175.67
175.861
176.12
175.064
174.631
175.17
175.274
175.332
175.332
175.272
175.179
175.081
175.034
175.116
175.372
175.748
176.059
176.344
175.471
174.913
174.672
174.642
174.734
174.804
174.735
174.565
174.357
174.192
174.143
174.235
174.581
175.13
175.762
176.182
175.26
174.846
174.451
174.336
174.304
174.192
173.935
173.591
173.233
172.96
172.874
173.027
173.405
174
174.858
175.689
176.43
175.054
174.751
174.483
174.227
174.011
173.782
173.451
173.03
172.581
172.176
171.884
171.782
171.917
172.261
172.77
173.663
174.99
176.181
176.785
174.281
174.415
174.21
173.9
173.537
173.124
172.666
172.208
171.796
171.458
171.222
171.141
171.256
171.539
171.926
172.588
173.813
175.276
176.369
173.862
173.968
173.776
173.407
172.926
172.426
171.958
171.555
171.217
170.947
170.77
170.73
170.854
171.115
171.464
171.841
172.533
174.26
175.731
176.785
173.582
173.633
173.321
172.85
172.306
171.806
171.383
171.031
170.741
170.517
170.386
170.381
170.531
170.819
171.177
171.526
172.044
173.112
175.142
176.612
173.184
173.239
172.878
172.333
171.771
171.291
170.9
170.587
170.343
170.175
170.09
170.123
170.3
170.618
171.002
171.377
171.868
172.457
174.69
175.558
173.372
173.049
172.56
171.924
171.336
170.857
170.486
170.212
170.019
169.906
169.878
169.963
170.181
170.535
170.932
171.351
171.895
172.408
174.432
173.711
173.292
172.433
171.697
171.066
170.57
170.203
169.957
169.808
169.748
169.775
169.91
170.175
170.553
170.948
171.393
171.602
172.572
174.718
174.389
173.481
172.507
171.687
171.01
170.49
170.114
169.88
169.759
169.735
169.802
169.98
170.282
170.667
171.064
171.561
172.033
173.228
175.385
174.715
173.661
172.898
171.868
171.182
170.646
170.254
170.009
169.89
169.877
169.965
170.171
170.494
170.875
171.278
171.591
172.441
173.805
173.929
173.205
172.374
171.5
170.982
170.577
170.308
170.177
170.159
170.254
170.486
170.828
171.189
171.4
172.095
173.623
175.247
175.281
173.844
172.907
171.997
171.487
171.053
170.76
170.617
170.591
170.698
170.951
171.366
171.394
171.958
173.452
174.729
174.828
173.676
172.688
172.083
171.611
171.349
171.286
171.316
171.468
171.409
171.612
172.234
173.665
174.863
173.203
172.598
172.2
171.886
171.804
171.799
172.087
172.749
173.18
173.994
175.246
173.973
173.275
172.709
172.759
173.066
173.411
174.18
174.889
176.379
176.336
176.274
176.723
176.338
176.162
176.093
176.038
175.978
175.896
175.904
176.012
175.29
176.392
176.147
175.909
175.677
175.628
175.6
175.571
175.674
175.744
175.885
176.172
176.385
174.441
174.598
175.32
175.399
175.38
175.345
175.306
175.26
175.211
175.213
175.355
175.622
176.08
176.398
176.404
174.987
174.7
174.789
174.973
175.003
175.021
174.93
174.781
174.62
174.504
174.503
174.648
175.012
175.492
175.981
176.166
174.922
174.879
174.73
174.699
174.631
174.499
174.236
173.913
173.593
173.363
173.314
173.505
173.936
174.564
175.369
176.082
176.694
174.463
174.672
174.599
174.506
174.329
174.081
173.742
173.32
172.887
172.495
172.217
172.132
172.303
172.725
173.352
174.327
175.559
176.623
177.108
174.022
174.399
174.368
174.116
173.746
173.318
172.855
172.401
172.001
171.665
171.427
171.355
171.508
171.874
172.391
173.241
174.548
175.961
176.817
173.923
174.222
173.97
173.536
173.016
172.509
172.05
171.66
171.338
171.08
170.908
170.875
171.031
171.368
171.822
172.354
173.348
175.154
176.346
176.433
173.827
173.933
173.472
172.878
172.3
171.806
171.401
171.069
170.806
170.609
170.496
170.504
170.683
171.028
171.469
171.949
172.758
174.151
175.93
177.163
173.447
173.442
172.912
172.251
171.671
171.207
170.847
170.572
170.372
170.242
170.184
170.232
170.43
170.79
171.24
171.745
172.48
173.411
175.659
176.524
173.283
173.007
172.439
171.735
171.152
170.703
170.379
170.161
170.027
169.96
169.962
170.061
170.291
170.67
171.119
171.683
172.47
173.271
175.507
173.301
172.832
172.19
171.424
170.818
170.364
170.056
169.88
169.797
169.786
169.842
169.989
170.261
170.655
171.099
171.706
171.993
173.402
175.723
173.931
173.039
172.226
171.378
170.722
170.25
169.941
169.78
169.722
169.742
169.833
170.022
170.339