/*--------------------------------*- C++ -*----------------------------------*\
| =========                 |                                                 |
| \\      /  F ield         | OpenFOAM: The Open Source CFD Toolbox           |
|  \\    /   O peration     | Version:  2406                                  |
|   \\  /    A nd           | Website:  www.openfoam.com                      |
|    \\/     M anipulation  |                                                 |
\*---------------------------------------------------------------------------*/
FoamFile
{
    version     2.0;
    format      ascii;
    arch        "LSB;label=32;scalar=64";
    class       volScalarField;
    location    "100";
    object      epsilon;
}
// * * * * * * * * * * * * * * * * * * * * * * * * * * * * * * * * * * * * * //

dimensions      [0 2 -3 0 0 0 0];

internalField   nonuniform List<scalar> 
238188
(
0.132678
0.433334
0.55051
0.118114
0.339463
0.43031
0.51554
0.967828
0.0578833
0.401337
0.475588
0.560855
0.938248
1.4091
0.101084
0.485578
0.860287
1.35226
0.199126
1.95255
4.13321
4.97037
0.983839
0.872752
1.50213
1.79834
1.96005
0.930934
1.55094
1.13043
1.5288
6.26058
1.26468
0.691104
1.79574
4.32651
1.78622
0.0126418
0.00234811
0.00320739
0.523007
0.458323
0.309521
0.170623
0.00725392
0.000896691
0.000475738
0.000159651
0.000213143
4.89176
0.657099
0.506767
0.28197
0.270092
0.385169
0.0197505
0.00202224
0.00116844
0.000163551
2.45305e-05
5.57731e-05
0.000221227
16.8224
1.14548
1.65123
1.55113
0.621864
0.303122
0.303287
0.013315
0.00748538
0.00485866
0.000519587
4.94007e-06
1.07923e-05
3.27666e-05
0.000196688
84.536
14.4541
127.207
36.5733
8.35066
11.5712
19.6759
0.150779
0.0236031
0.0177513
0.0124178
0.00110689
4.00508e-05
1.73612e-05
1.76689e-05
4.11924e-05
50.2559
112.835
15.7281
2.36085
3.37853
5.66503
7.1367
0.51961
0.0248839
0.0206727
0.00991091
0.000908498
0.00090231
0.000405827
9.61359e-05
3.6235e-05
0.000100946
16.7131
55.9043
24.8
3.40786
2.42719
2.21654
3.14205
5.34365
0.099852
0.0119846
0.00818896
0.00165534
0.0015752
0.00242442
0.00211574
0.000779207
0.000154964
6.85299e-05
0.00121414
7.98541
38.3047
10.6231
8.93613
5.99151
2.23128
2.61945
0.836414
0.00983456
0.0026996
0.000917466
0.0003502
0.000785909
0.00140431
0.00173085
0.00106261
0.000320711
8.68405e-05
0.000332996
5.7537
21.0889
10.6794
12.6915
2.16183
1.43516
0.226993
0.0123463
0.00172838
0.000477373
5.18029e-05
3.56549e-05
0.000120959
0.000278941
0.000373644
0.000280982
0.000138927
9.22915e-05
0.000319011
7.11907
3.62881
10.2099
9.69863
7.97986
0.0277383
0.0151697
0.00513846
0.0013345
0.000675045
0.000151813
3.70866e-05
1.90894e-05
1.20551e-05
2.13747e-05
3.62008e-05
4.80638e-05
5.96849e-05
7.18324e-05
0.000175005
3.58099
2.39873
4.33109
9.66487
4.65625
0.0101242
0.00143
0.000410883
0.000135504
8.20904e-05
0.000150388
0.00028716
0.000454348
0.000396194
7.90394e-05
1.34249e-05
2.11224e-05
4.24929e-05
6.38465e-05
0.000154397
7.30345
2.92705
3.54581
10.0886
4.36776
1.27573
0.00227365
0.000367903
0.000103514
2.58843e-05
7.08101e-05
7.17693e-05
4.09048e-05
7.79055e-05
0.000233712
0.00031722
7.31556e-05
3.3412e-05
7.03243e-05
0.000422919
3.57679
1.23274
2.84838
2.21772
1.25226
0.562335
0.0469815
0.0293601
0.00240597
0.000159176
0.000237932
0.000305847
0.000160543
7.03757e-05
8.59371e-05
0.000219562
0.000189314
0.000156216
0.000755635
2.42919
1.92411
2.03258
1.10486
1.21886
0.927825
0.015641
0.0149187
0.0695032
0.00387047
0.000467346
0.000606141
0.000477897
0.00028616
0.000303043
0.000344855
0.00038891
0.00122177
0.00670964
1.61419
0.806415
1.24925
0.804756
0.861929
0.888253
0.0693557
0.0270822
0.133931
0.0372694
0.00185197
0.000945629
0.000898715
0.000495703
0.000272104
0.000221066
0.000203313
0.000323657
0.526331
1.46727
0.536531
0.480551
0.415769
0.0587354
0.0685646
0.142625
0.0546251
0.00872181
0.00138428
0.00123268
0.000685645
0.000291606
0.0001111
4.35765e-05
0.00010432
0.802728
1.89914
0.462903
0.257367
0.17883
0.0378136
0.132082
0.12005
0.0520889
0.0132075
0.00185258
0.001274
0.000666912
0.000252888
9.60632e-05
7.36855e-05
2.00392
1.42005
0.611905
0.386658
0.282772
0.147573
0.07861
0.0388499
0.010852
0.00189405
0.00102667
0.000530309
0.000223655
0.000166164
0.549863
0.31786
0.154132
0.0802811
0.0393995
0.0192549
0.00584684
0.00192318
0.00129208
0.00102452
0.000815005
0.385679
0.119756
0.0491389
0.0244369
0.00932958
0.00625884
0.00723143
0.00766803
0.000974499
0.000671021
0.000790929
1.48608
0.0552123
0.0485991
0.0312927
0.00563565
0.0062675
0.00499871
0.00079117
2.41016e-05
2.96078
0.24188
0.279066
0.0946338
0.140334
0.103635
0.0198774
0.0148171
0.00942826
0.00236597
0.000261415
6.40251e-05
1.12376e-05
4.45756
0.699613
0.212725
0.175024
0.127064
0.161165
0.0831183
0.0343632
0.0163179
0.00574425
0.00129104
0.000632989
0.000501977
0.000164948
1.82143e-05
32.5956
12.8021
9.36965
4.602
2.07317
0.284826
0.10455
0.0521086
0.0195828
0.00537407
0.00131543
0.000944678
0.000960796
0.000812911
0.000537614
0.000229747
6.38088
4.70151
3.21454
2.30609
0.361099
0.0336078
0.0595288
0.00969303
0.00237408
0.0010127
0.00117959
0.00138083
0.00152061
0.00133263
0.000894685
0.000565077
9.91334e-05
8.40959
3.12658
2.30972
2.47551
2.3761
1.11804
0.197886
0.00360005
0.000451067
0.000377123
0.000596997
0.000938623
0.00134974
0.0017719
0.00176967
0.0013041
0.000849789
0.000358379
3.99144e-05
2.69006
2.61213
1.81981
1.97264
1.73994
0.335106
0.0161866
0.000456836
0.000191179
9.39277e-05
0.000138211
0.000259112
0.000498749
0.000936287
0.0013566
0.00126427
0.00089851
0.000396848
6.66505e-05
2.02463
2.68859
1.37887
0.984707
0.363138
0.0179601
0.00637786
0.00229881
0.000651047
0.00010407
5.49235e-05
6.09353e-05
8.61364e-05
0.000179163
0.000391597
0.000536441
0.000441742
0.0002415
6.45785e-05
2.53692
1.57539
2.7156
2.68469
0.17877
0.0186542
0.00490291
0.00212363
0.001131
0.000544385
0.000263106
0.000161357
0.00010538
8.14537e-05
7.39856e-05
8.2862e-05
9.62079e-05
0.000105705
9.79871e-05
4.68916e-05
2.30177
0.839254
1.33776
2.5811
1.07885
0.00371058
0.000807043
0.000539317
0.000996295
0.00160602
0.00162628
0.00110278
0.000573795
0.000328542
0.000195901
0.000145157
0.000116669
8.72396e-05
8.93578e-05
4.68408e-05
2.94942
0.365464
0.499852
1.24094
1.94457
0.0833153
0.000401906
0.000740443
0.00183344
0.00238325
0.00356634
0.00315441
0.00195421
0.00104671
0.000599697
0.000397561
0.000314265
0.000194889
0.00020665
7.89552e-05
0.20153
0.238275
0.485652
1.15145
0.710241
0.0181461
0.015555
0.0151325
0.00687599
0.00403932
0.0047179
0.00399792
0.00189524
0.00101013
0.000625933
0.000548269
0.000470784
0.000516181
0.00104062
0.200453
0.211132
0.328749
0.690145
0.427951
0.0586476
0.00816006
0.00727514
0.0260698
0.00869158
0.00570693
0.00521894
0.0030588
0.00133717
0.000678635
0.000445462
0.000393847
0.000569057
0.00618195
2.40628
0.208897
0.162608
0.411836
0.224397
0.0633272
0.0103023
0.00827363
0.0293251
0.0179693
0.0086718
0.00598048
0.00341989
0.00158376
0.00081421
0.000559832
0.000336774
0.000259329
0.24146
0.136548
0.250761
0.142924
0.0617172
0.00811719
0.00662543
0.0132874
0.0222063
0.010643
0.00547176
0.00286125
0.00144806
0.000975158
0.000854815
0.000422393
9.91739e-05
0.871806
0.159177
0.158904
0.103512
0.045509
0.00774703
0.00543036
0.00852695
0.0133375
0.00701611
0.00331884
0.00170528
0.00120767
0.00139752
0.0011984
0.0002314
0.48316
0.118269
0.0645264
0.0280917
0.00760507
0.00397672
0.00807848
0.00643345
0.00306258
0.00149658
0.00118594
0.00148139
0.00143115
0.000310468
0.0348077
0.0151339
0.00846596
0.00542715
0.00323875
0.00175054
0.00137801
0.00150536
0.00152127
0.000980677
0.000355615
0.0276181
0.0123824
0.0059732
0.00321189
0.00207977
0.00255929
0.00332991
0.00292391
0.00137522
0.00112692
0.00134228
2.17216
0.042519
0.0177027
0.011123
0.00844725
0.00763294
0.00561743
0.00154387
2.54049e-05
4.15238
0.370088
0.301925
0.0769598
0.0473144
0.0246589
0.0121655
0.00618858
0.00503922
0.00133911
0.000310088
0.000111266
3.43483e-05
2.65243
0.108477
0.0829372
0.0312957
0.0278675
0.0216843
0.0118781
0.00488052
0.00189844
0.00119014
0.00122385
0.000930929
0.000542487
0.000233549
6.47649e-05
9.3826
1.34178
0.0918949
0.00869874
0.00528688
0.00438507
0.00344676
0.0023053
0.00174297
0.00165917
0.00170023
0.00174526
0.00173653
0.00125896
0.000867235
0.000288738
2.29807
0.19697
0.00357441
0.00125294
0.00116081
0.000847806
0.00104852
0.00145015
0.00197097
0.00237674
0.00262634
0.00269588
0.00261989
0.00240089
0.00169613
0.000796681
0.000247583
5.69712
1.14741
0.322542
0.0331544
0.00081986
0.000440319
0.000486388
0.0006235
0.000933116
0.00148473
0.00215445
0.00282336
0.00335604
0.00360369
0.00326001
0.00217916
0.00120306
0.000560259
0.000147051
1.6787
1.06892
0.336404
0.0310519
0.000727688
0.000512699
0.000440697
0.000372794
0.000416746
0.000547874
0.000781818
0.00122444
0.00194672
0.00289758
0.00326731
0.00221487
0.00130516
0.000620326
0.000309819
0.712386
0.180202
0.0564136
0.00147751
0.00121743
0.000961346
0.000738845
0.000502991
0.000401616
0.000387157
0.000379934
0.000407732
0.000562639
0.00099303
0.00157891
0.00132467
0.000731636
0.000511309
0.00025825
2.45165
0.282153
0.265491
0.105155
0.00281995
0.0012675
0.000866484
0.000755479
0.000796836
0.000740332
0.000655582
0.000511472
0.000375985
0.000307264
0.000305343
0.000354602
0.000344054
0.000230338
0.000182779
0.000119686
1.96736
0.193937
0.403307
0.586127
0.03601
0.00213636
0.00182594
0.00167913
0.00199621
0.00187179
0.00152835
0.000947408
0.000590706
0.000388256
0.000281454
0.000221931
0.000177917
0.00014149
0.000109584
7.42827e-05
2.89804
0.127146
0.297588
0.613328
0.335604
0.0170116
0.00156355
0.00252112
0.00364359
0.00413372
0.00352777
0.00181349
0.000953852
0.000533883
0.000354705
0.000256664
0.00020764
0.000168516
0.000136518
8.75149e-05
0.0925334
0.233373
0.447636
0.367306
0.0793762
0.0041286
0.00417953
0.00607855
0.00739634
0.00786243
0.00323819
0.00148919
0.000748659
0.000451982
0.000301818
0.000225368
0.00022829
0.000198373
0.000149892
0.182571
0.154872
0.296606
0.240782
0.0599893
0.0053088
0.00498597
0.00700244
0.0106771
0.011888
0.00429335
0.00203769
0.00100046
0.00057197
0.000361279
0.00024544
0.000233919
0.000246054
0.000764128
1.90562
0.112647
0.213594
0.134353
0.0290924
0.00508836
0.00553239
0.00677243
0.00880119
0.0108795
0.00452863
0.00213955
0.00108212
0.000631699
0.000401313
0.000304478
0.000259115
0.00029243
0.142655
0.0900165
0.083164
0.0141499
0.00364082
0.00465552
0.00656818
0.00726816
0.00773994
0.0037589
0.00181235
0.000988854
0.00062135
0.000460443
0.000314624
0.000312941
0.000216595
0.126174
0.0519495
0.0373647
0.0136424
0.00513088
0.00350289
0.00498409
0.00646889
0.00465919
0.00233491
0.00130429
0.000861523
0.000644528
0.000451569
0.000420484
0.000408423
0.115257
0.0431167
0.0203524
0.00871647
0.00351141
0.00385054
0.00326925
0.00201639
0.00135266
0.00107205
0.000878587
0.000799778
0.000834833
0.000752982
0.0145091
0.00823976
0.00459456
0.00273756
0.00175634
0.00136682
0.00146349
0.00160331
0.00149133
0.00109545
0.000554129
0.0538901
0.0248007
0.0101609
0.00497933
0.00340367
0.00337767
0.00360147
0.00297467
0.00325413
0.00183521
0.00165318
2.9615
0.0340143
0.017204
0.0124445
0.00970893
0.0068347
0.0041634
0.000962669
2.1436e-05
6.73377
0.457571
0.299945
0.0726405
0.0301896
0.016925
0.00856862
0.00415908
0.00332415
0.000952548
0.000306526
9.06729e-05
2.43157e-05
5.5548
0.0536643
0.0375815
0.0173105
0.014368
0.0112897
0.0071791
0.00335629
0.00152517
0.00111539
0.00121567
0.00109321
0.000702724
0.00021799
4.10448e-05
22.2622
0.0117009
0.00609559
0.00248146
0.00248765
0.00271425
0.00271187
0.00234463
0.00198543
0.00189999
0.00185649
0.00182657
0.00179928
0.00139458
0.00104924
0.00029485
1.15353
0.00365272
0.000688433
0.000639528
0.000848982
0.00119592
0.00164747
0.00213019
0.0025727
0.00297345
0.00321959
0.0031854
0.00291157
0.00262251
0.00201527
0.000718854
0.000186922
5.69116
0.236321
0.00187722
0.000566121
0.000602669
0.000808967
0.00112085
0.00159034
0.00219454
0.00283782
0.00353531
0.00428424
0.0048498
0.00469112
0.00408463
0.00297964
0.00132916
0.000640348
9.97483e-05
1.225
0.0567067
0.00176841
0.0006396
0.00069118
0.000873797
0.00105362
0.00122504
0.00138567
0.00164147
0.00221329
0.0032771
0.0046514
0.00589694
0.00606803
0.0040606
0.00213355
0.00104184
0.000330901
0.227804
0.0081104
0.0012244
0.000898887
0.00112908
0.00141777
0.00172414
0.00190326
0.00173103
0.00123213
0.000806018
0.00105621
0.00191425
0.00341479
0.00549633
0.00428497
0.00203896
0.00127704
0.000545305
3.02794
0.085555
0.00437201
0.00137288
0.00179687
0.00257932
0.00355036
0.0041933
0.00455872
0.00400082
0.00254002
0.000917732
0.00042574
0.000510854
0.000924229
0.00213662
0.00244263
0.00129041
0.000863441
0.000428844
4.24289
0.0348923
0.00996976
0.0457698
0.0041249
0.00678099
0.00889074
0.0110223
0.0111353
0.00951608
0.00602704
0.00191487
0.000512965
0.000317125
0.00031764
0.000525728
0.000712037
0.000406859
0.000282112
0.000174389
8.12146
0.0115876
0.0318886
0.136457
0.0289662
0.00916066
0.00908629
0.0143612
0.0197512
0.0197136
0.01255
0.00388018
0.000836378
0.000384858
0.000249094
0.000216307
0.000219575
0.000146852
0.000105661
8.16243e-05
0.0161756
0.0377288
0.168277
0.109544
0.0197504
0.00659826
0.0126517
0.0187479
0.0223719
0.0190545
0.00574603
0.00127603
0.000521556
0.000300095
0.00020445
0.000175917
0.000144102
9.56674e-05
0.000106383
0.102903
0.0557996
0.129951
0.0966103
0.0171649
0.00498688
0.0101988
0.0144602
0.0171745
0.0177272
0.00500849
0.00160201
0.000676402
0.000379193
0.000248891
0.000195374
0.000153566
0.000112498
0.000218762
1.95013
0.0553761
0.10848
0.0612517
0.00992157
0.00371229
0.00806993
0.0106435
0.0113895
0.0108978
0.00436414
0.00162114
0.000775762
0.000451629
0.000300356
0.000246505
0.000162197
0.000154006
0.0403089
0.0561299
0.0417943
0.00611793
0.0028886
0.00552495
0.00783259
0.00773234
0.00669195
0.00325757
0.00144699
0.000823049
0.000509316
0.000426865
0.000277348
0.000238241
0.000355657
0.0541753
0.0246433
0.0151823
0.00389279
0.00221384
0.00358109
0.00538246
0.00613972
0.0044836
0.00221816
0.00125685
0.000838589
0.000641392
0.000472635
0.000389698
0.000380307
0.0563387
0.0151209
0.00651727
0.00294103
0.00274721
0.00409196
0.00332898
0.00211282
0.0014732
0.00116876
0.000881205
0.00059464
0.000456655
0.000410659
0.0143282
0.00845385
0.00467228
0.00295198
0.00208883
0.00184119
0.0017489
0.00153391
0.00113269
0.00063114
0.000290481
0.0739195
0.0331351
0.0133485
0.00630684
0.00403711
0.00350049
0.00340862
0.00284189
0.0193491
0.0223292
0.0032056
1.62637
0.202364
0.0334725
0.0190694
0.00989527
0.00490893
0.00235571
0.000358351
1.01215e-05
6.97406
0.238569
0.176438
0.0745901
0.0312047
0.0167153
0.00726647
0.00325387
0.00236201
0.000615907
0.000205272
5.50509e-05
1.24421e-05
7.94556
0.0476267
0.0243795
0.0171148
0.0159994
0.0126848
0.00833381
0.0039459
0.00163246
0.000971764
0.00107913
0.000952489
0.000662125
0.000176912
2.02487e-05
33.3426
0.0107928
0.00490086
0.00356218
0.00383694
0.00397141
0.00362464
0.00303351
0.00255715
0.00238292
0.00213038
0.00189792
0.00181292
0.00157057
0.00126295
0.000260479
0.279118
0.00162246
0.000838321
0.00097536
0.00121476
0.00152877
0.00185598
0.00221409
0.00268727
0.00327236
0.00366769
0.0035947
0.00311883
0.00274128
0.00232626
0.000718494
0.000123971
6.41975
0.0605783
0.000891875
0.000891461
0.00106496
0.00126726
0.00151183
0.00176051
0.00202436
0.0023987
0.00304588
0.00398409
0.00489591
0.00491476
0.00424112
0.00347008
0.00126679
0.000690651
5.96077e-05
2.79485
0.024815
0.000960243
0.00114579
0.00128557
0.00147259
0.00161741
0.00175143
0.00184333
0.00197537
0.00241012
0.00329091
0.00472201
0.00615874
0.00607295
0.00473992
0.00197731
0.00103621
0.000189457
0.291931
0.0042919
0.00100102
0.00152984
0.00201112
0.00236843
0.00261981
0.00254657
0.0021928
0.00169874
0.0014858
0.00186635
0.00290172
0.00471127
0.00646786
0.00536274
0.00229062
0.00121875
0.000348744
8.03563
0.0583028
0.00192202
0.00132148
0.00272603
0.00474038
0.0066589
0.0071715
0.00649571
0.00499828
0.00284067
0.00124684
0.000804981
0.00117615
0.00208328
0.00363985
0.0043496
0.00195742
0.00112583
0.000321018
8.97736
0.0112073
0.00131253
0.00161287
0.00370339
0.00670659
0.0106194
0.013829
0.0147873
0.0114126
0.00670378
0.00240004
0.000581817
0.000463997
0.000621362
0.00108297
0.00209452
0.00114889
0.000692865
0.000199709
12.1742
0.0116328
0.00168567
0.00284195
0.00532377
0.00888799
0.013234
0.0175239
0.0204782
0.0181831
0.0108755
0.00461336
0.00088214
0.000411089
0.00030069
0.000278735
0.000571297
0.000374523
0.000224427
9.12184e-05
0.0280143
0.00373005
0.0226409
0.0227283
0.00998534
0.0115118
0.0158016
0.0195247
0.0184651
0.0124994
0.0059581
0.00134549
0.000534555
0.000316449
0.000146077
0.000154796
0.000161919
8.64182e-05
8.66931e-05
0.045415
0.014307
0.0417306
0.0326211
0.00828882
0.00825866
0.0120861
0.0146861
0.0134313
0.0100107
0.00492034
0.00164823
0.000698367
0.000386093
0.000157641
0.000107697
0.000118823
9.32498e-05
0.000150322
1.9148
0.020454
0.044409
0.025035
0.00526307
0.00553796
0.0088789
0.0105457
0.00914114
0.00670666
0.00367376
0.00158558
0.000806503
0.000454135
0.000182848
0.000146943
0.000142446
0.000127352
0.0216291
0.0263978
0.0182354
0.00368139
0.00350348
0.00596882
0.00732362
0.00637285
0.00493823
0.00296852
0.00146178
0.000853051
0.00049145
0.000239854
0.000178834
0.000177741
0.000199205
0.215281
0.0112519
0.00692298
0.00204297
0.00218659
0.00387094
0.00494826
0.00505517
0.00391865
0.00216937
0.00124546
0.000801752
0.000530192
0.00023575
0.000169368
0.000143221
0.11393
0.00981501
0.00306657
0.00193979
0.00266786
0.00359261
0.00291675
0.00197288
0.00137421
0.00106306
0.000730049
0.000437173
0.000244126
0.000110148
0.0187159
0.00823475
0.00445729
0.00276271
0.00200225
0.00175477
0.00158681
0.00133897
0.000986072
0.000555652
0.000280053
0.0655
0.0273687
0.0112207
0.00548829
0.00347331
0.00288871
0.00279348
0.00236347
0.0622273
0.0244571
0.0327907
0.666047
0.441006
0.0807545
0.050942
0.0154747
0.00284222
0.0010481
8.66175e-05
4.16332e-06
4.07918
0.106721
0.089898
0.0703583
0.0353528
0.0163858
0.00536178
0.00197886
0.00119482
0.000265054
8.31385e-05
2.44416e-05
1.04859e-05
5.87992
0.0482864
0.0265186
0.0191092
0.0166631
0.0136792
0.00921515
0.00389032
0.00140202
0.000669755
0.000692709
0.00055656
0.000396678
0.000104722
8.14457e-06
25.8825
0.0258152
0.00914094
0.00561811
0.00537753
0.0053066
0.00499296
0.00426778
0.00350594
0.00319026
0.00270461
0.00210775
0.00169491
0.00130543
0.00101193
0.000119736
0.0887721
0.00194221
0.0013161
0.00135571
0.00154989
0.00181221
0.00215766
0.00262533
0.00327032
0.00410392
0.00471665
0.00462994
0.00365135
0.002739
0.00217933
0.00068062
5.65942e-05
7.25628
0.0208627
0.000767953
0.000744748
0.000893701
0.00105979
0.00125614
0.00147682
0.00171654
0.00206772
0.00277047
0.00405145
0.0055375
0.00582361
0.00479019
0.00367076
0.00159622
0.000367378
2.40665e-05
3.37622
0.00657629
0.000788335
0.00101828
0.00123669
0.00143783
0.00171604
0.00192669
0.00196715
0.00181659
0.0018439
0.00266669
0.00450261
0.0065799
0.00660483
0.00548154
0.00266166
0.000605439
5.15814e-05
0.125054
0.0019763
0.00122838
0.00215455
0.00304414
0.00373566
0.00399975
0.00414671
0.00381564
0.00272659
0.0016112
0.00152154
0.00275707
0.0049392
0.00668799
0.00591272
0.00307706
0.000867835
0.000100924
12.8441
0.024939
0.00153306
0.00211401
0.00408507
0.00602005
0.00778662
0.00928666
0.00987304
0.00893417
0.0060192
0.00250907
0.000912728
0.00130506
0.00258612
0.00439527
0.00473307
0.00255614
0.000979018
0.000137386
14.325
0.0132795
0.0015793
0.00294444
0.0057577
0.00875902
0.0118145
0.0149698
0.0172542
0.0154024
0.0106859
0.00493533
0.0010114
0.000574294
0.000976682
0.00184339
0.00264984
0.00166004
0.000685859
0.000116437
16.2718
0.0590787
0.00291537
0.0034003
0.00630677
0.0101933
0.0144872
0.0198535
0.0246169
0.0222397
0.0141335
0.00747123
0.00162608
0.000500375
0.000423132
0.000531654
0.000906787
0.000771288
0.000282779
6.61582e-05
0.138069
0.00658274
0.00362296
0.00600647
0.00944455
0.013122
0.0186389
0.0232885
0.0210446
0.0141949
0.00834588
0.00226596
0.000665469
0.00038589
0.000213474
0.000243672
0.000317895
7.70533e-05
5.06583e-05
0.38807
0.00885777
0.00817466
0.00996843
0.00780184
0.00962386
0.0129156
0.0156392
0.0143569
0.0106735
0.00622507
0.00231222
0.00085459
0.00045901
0.000196777
7.74058e-05
0.000102501
9.0493e-05
5.95239e-05
1.55512
0.00833186
0.0145963
0.009555
0.00544714
0.00637384
0.00820909
0.00949634
0.0085687
0.0065573
0.00400489
0.00184071
0.000882054
0.000504482
0.000214881
5.62131e-05
7.08336e-05
0.000143173
0.0267136
0.00987595
0.00722408
0.00320016
0.00375578
0.00492724
0.00565077
0.00517638
0.00416488
0.00276743
0.00143099
0.000821244
0.000487473
0.000248988
6.80021e-05
5.67451e-05
0.000680756
0.33175
0.00558304
0.002887
0.00159628
0.00213971
0.00305496
0.00361196
0.0037516
0.00302577
0.00181346
0.00105192
0.000687471
0.000460547
0.00018999
7.57168e-05
4.6874e-05
0.115736
0.00966526
0.00241616
0.00164991
0.00201455
0.00244186
0.00198655
0.00139922
0.00102183
0.000813463
0.000578836
0.000351698
0.000187706
7.75038e-05
0.0133609
0.00560771
0.00308723
0.00194021
0.00146672
0.00132853
0.00122214
0.00105526
0.00078792
0.000464015
0.000246491
0.0430631
0.0184024
0.00784781
0.00396728
0.00258587
0.00220195
0.00215078
0.00184447
0.147069
0.0109381
0.00503796
0.377691
0.390426
0.323302
0.136557
0.0445038
0.00233655
0.000463123
1.67374e-05
5.37932e-06
1.89103
0.0904213
0.0809723
0.07099
0.0297327
0.0220124
0.0052814
0.0010078
0.000390757
6.90378e-05
3.1023e-05
1.09653e-05
3.00927e-05
2.03895
0.0480858
0.03792
0.019775
0.0146609
0.0129962
0.00910023
0.00268242
0.000666675
0.000330282
0.000353206
0.000222122
0.000170415
5.14238e-05
3.97196e-06
15.1148
0.0430311
0.0188754
0.00905823
0.00776243
0.00744499
0.00682146
0.00548003
0.00436522
0.00411045
0.00352781
0.00247718
0.00154607
0.000886841
0.000568215
4.7728e-05
0.371935
0.0109822
0.0037057
0.00303101
0.00291759
0.00298351
0.00323753
0.00364922
0.00425725
0.00516683
0.00613453
0.0063628
0.00486286
0.00288497
0.00179573
0.000434654
1.67e-05
8.59946
0.0817871
0.00381413
0.00135531
0.00133529
0.00154084
0.00180299
0.00209234
0.00235885
0.00257287
0.00311103
0.0045591
0.00681503
0.00776759
0.00609985
0.00382238
0.00140183
8.85968e-05
8.62029e-06
4.78132
0.0321985
0.00208824
0.00146162
0.00174579
0.002119
0.00245165
0.00279479
0.00290591
0.00245188
0.00200745
0.00256662
0.00493914
0.00804709
0.00843327
0.00689383
0.00322382
0.000108019
1.22992e-05
0.47631
0.00689661
0.00245131
0.00308618
0.00408564
0.00494508
0.00562355
0.00592384
0.0057497
0.00422365
0.00229722
0.00146166
0.00283723
0.00593979
0.00801691
0.00719292
0.00419985
9.91386e-05
1.82553e-05
16.7247
0.0719674
0.00441948
0.00413277
0.00564058
0.00737028
0.00924551
0.0111801
0.0123141
0.0112074
0.00798416
0.00405184
0.00121084
0.00133216
0.00336366
0.00586361
0.005636
0.00367652
8.45574e-05
2.83172e-05
20.283
0.0405516
0.00477011
0.00593751
0.00816303
0.0110623
0.0150446
0.0200073
0.0235922
0.0211255
0.0136746
0.00694174
0.00173998
0.000639914
0.00136852
0.00315946
0.00385746
0.00255405
7.61079e-05
3.27349e-05
25.2455
0.0421407
0.00576768
0.00737146
0.00999192
0.0135746
0.0191066
0.0273031
0.0333627
0.0293283
0.0189788
0.0100432
0.00270926
0.000614475
0.000522252
0.00103597
0.00179899
0.00126034
7.16492e-05
2.54823e-05
0.0460429
0.00738612
0.00879293
0.0104675
0.0137199
0.0191185
0.0273029
0.0311816
0.0266965
0.018276
0.0110337
0.00361039
0.00084589
0.00042896
0.000327635
0.000610776
0.000555718
9.50353e-05
2.85028e-05
0.238901
0.00552158
0.00674182
0.00910906
0.0114089
0.0145704
0.0191708
0.0208332
0.0183746
0.0134428
0.00814509
0.00317329
0.00105359
0.00050599
0.000229629
0.000158239
0.000354323
0.000260684
0.000376271
1.4451
0.0041636
0.00565818
0.0066556
0.00758775
0.00926683
0.0113486
0.0118429
0.0102974
0.00787654
0.00477593
0.00213323
0.000941384
0.000513761
0.000228164
7.04385e-05
0.000152119
0.000683294
0.0166682
0.00350113
0.00425146
0.0041335
0.00509927
0.00615188
0.00641569
0.00570864
0.00434144
0.00269146
0.00135155
0.000749382
0.000448449
0.000235608
5.92949e-05
4.26089e-05
0.000904686
0.124595
0.00430583
0.00167425
0.00215615
0.00287614
0.00358175
0.00370951
0.00338148
0.00248192
0.00145994
0.000844536
0.000560608
0.000383274
0.000153655
5.71291e-05
3.24885e-05
0.0662754
0.00744158
0.00250375
0.00209342
0.00232838
0.00210606
0.00152071
0.00104383
0.000764155
0.000612236
0.000440239
0.000267666
0.000143696
5.97268e-05
0.0093867
0.00409554
0.00222801
0.00136604
0.00103726
0.000954996
0.000886321
0.000769391
0.000570099
0.000343738
0.000186599
0.035263
0.0140799
0.00569866
0.00279412
0.00182328
0.00156615
0.00153348
0.00131516
0.049216
0.00563582
0.00327345
0.215322
0.21747
0.351645
0.124148
0.0309796
0.00087826
0.00010844
4.50868e-06
7.67482e-06
1.02187
0.108218
0.0854967
0.050129
0.0438797
0.0231509
0.00364135
0.000444763
9.71272e-05
1.89441e-05
1.24509e-05
6.82473e-06
6.16308e-05
0.716432
0.0510186
0.0463681
0.0172259
0.0147975
0.0152104
0.00812558
0.00152929
0.000297835
0.000182018
0.000151754
7.82882e-05
7.71905e-05
2.42865e-05
1.36344e-05
6.31403
0.037949
0.0257495
0.012141
0.00955489
0.00928325
0.00833309
0.00578313
0.00476189
0.00485871
0.00447399
0.00319427
0.00155758
0.000552877
0.000316331
2.05223e-05
0.598267
0.0299579
0.00778956
0.00515953
0.00454011
0.00436152
0.00423822
0.00439643
0.00486154
0.00571576
0.00707337
0.00828498
0.00711936
0.00365408
0.00141869
0.000240696
5.45806e-06
10.3146
0.132839
0.00941199
0.00391688
0.00283341
0.00260562
0.00258938
0.00271714
0.0028623
0.00297258
0.00329401
0.00450236
0.0073165
0.0101824
0.00867513
0.00425451
0.000998718
2.64219e-05
3.74039e-05
2.8676
0.0602135
0.00506737
0.00332381
0.00321844
0.00337893
0.00347432
0.00341897
0.00327887
0.00284006
0.0022577
0.00236096
0.00443814
0.00893446
0.0115494
0.00951275
0.00339677
5.62115e-05
3.29411e-05
0.0921566
0.00730909
0.00432142
0.00458424
0.00551213
0.00650773
0.00722202
0.00722101
0.00632814
0.0046952
0.00281207
0.00159648
0.0023845
0.0060286
0.00992462
0.0100673
0.00666943
0.000129502
1.0534e-05
15.7002
0.0173963
0.00505314
0.00533662
0.00710163
0.00958604
0.0125722
0.0155662
0.0170052
0.0149041
0.0094632
0.00487366
0.00177916
0.00127495
0.00354325
0.00728245
0.00771844
0.00574555
0.000212512
8.07355e-06
15.215
0.00915803
0.00551568
0.00686448
0.00985971
0.0142099
0.0203147
0.0276127
0.032228
0.0284913
0.0179794
0.00856804
0.00276839
0.000819792
0.0016476
0.00454433
0.00575765
0.00413676
0.000312484
1.07154e-05
17.5581
0.00633715
0.00638433
0.00817527
0.011755
0.0171797
0.0256563
0.0368568
0.0434667
0.0381277
0.0253463
0.0127989
0.00414614
0.000908827
0.000684178
0.00187834
0.00343514
0.00247453
0.000335442
3.6642e-05
0.0070067
0.00729432
0.00935616
0.0125019
0.0174217
0.026746
0.0381344
0.0422944
0.0357184
0.0249962
0.0144711
0.00527242
0.00124987
0.000503304
0.00055275
0.00149434
0.00143235
0.00040706
0.000724535
0.0086563
0.00847142
0.0104829
0.0129986
0.016164
0.022067
0.0285402
0.0306873
0.0264713
0.0191045
0.0111181
0.00433034
0.0013738
0.000578056
0.000250609
0.00024577
0.00080747
0.000539571
0.00212286
0.730547
0.00447518
0.00952156
0.0110532
0.0128483
0.0158274
0.018444
0.0183064
0.0157142
0.0113215
0.00632054
0.00261379
0.00105354
0.000530967
0.000233356
6.51954e-05
9.61658e-05
0.000368297
0.0202862
0.00558229
0.0069235
0.0083934
0.00998933
0.0112085
0.0106647
0.00883818
0.00579504
0.00306538
0.00139578
0.000717185
0.000415688
0.00021538
4.81951e-05
2.97905e-05
0.000181118
0.0619109
0.00973629
0.00419088
0.00555397
0.00611378
0.00636237
0.00569414
0.00416562
0.00257463
0.00136822
0.000748116
0.000478945
0.000321247
0.000120486
4.24341e-05
2.26508e-05
0.043125
0.00618468
0.00388209
0.00413631
0.00407011
0.00248945
0.00148966
0.000921826
0.000632954
0.000488241
0.000333938
0.000194732
0.000100722
3.94044e-05
0.00775784
0.00343132
0.00187134
0.00107964
0.00078213
0.000704441
0.000646029
0.000553969
0.000397482
0.00023429
0.000121343
0.0295252
0.0107712
0.00413143
0.0019568
0.00127986
0.00111495
0.00108092
0.000893332
0.00610439
0.00180058
0.00233377
0.0869087
0.193977
0.153209
0.0562559
0.00409179
0.000113989
1.83814e-05
1.16477e-05
1.96826e-05
0.567356
0.0961189
0.066537
0.0461835
0.0324414
0.0150682
0.00138735
0.000125178
2.77311e-05
7.16441e-06
6.15268e-06
9.12939e-06
5.31648e-05
0.596551
0.0569354
0.039177
0.0122853
0.0143575
0.013787
0.0059594
0.000941765
0.000478877
0.000481815
0.000286578
2.6429e-05
3.24023e-05
1.15729e-05
4.08572e-05
3.07313
0.0284639
0.0245149
0.009358
0.00802206
0.0087461
0.00824975
0.00579503
0.00534665
0.00564426
0.0055565
0.00465634
0.0024569
0.000334864
0.000174164
8.82373e-06
0.0933093
0.0194922
0.00790089
0.00578008
0.0053479
0.00546107
0.00527546
0.00499717
0.00510291
0.00563417
0.00695277
0.00913558
0.0102106
0.00626979
0.000990733
0.000103579
1.32248e-05
5.7746
0.047831
0.00717906
0.00484704
0.00389234
0.00374954
0.00384702
0.00385629
0.00372623
0.00338954
0.00327874
0.00392677
0.00621929
0.0109167
0.0129484
0.00667153
0.000439652
1.5471e-05
0.000537929
0.309513
0.0165704
0.00508222
0.00463199
0.00496512
0.00557938
0.00601251
0.00579114
0.00487732
0.00360389
0.00251303
0.002132
0.00314497
0.00738854
0.0142872
0.0143619
0.0029302
9.31758e-05
0.000515736
0.0566831
0.00502629
0.00527958
0.00659872
0.00839151
0.0102188
0.0115647
0.0114997
0.00953177
0.00614812
0.00338693
0.0018008
0.00162854
0.00424789
0.010514
0.0147138
0.0107236
0.000521188
0.000216092
3.01003
0.020311
0.00601337
0.00701679
0.00988377
0.0135346
0.0178807
0.022235
0.024225
0.0207581
0.012591
0.00590956
0.0024197
0.00107469
0.00238524
0.00727392
0.0111463
0.0107561
0.00136284
0.000133101
3.42855
0.0119811
0.0073151
0.00879259
0.0129026
0.0188118
0.027133
0.0366237
0.0420643
0.0370677
0.0233861
0.0104554
0.00380382
0.00103189
0.00128088
0.00464447
0.00811056
0.00801989
0.00229056
0.000153605
4.62441
0.00996771
0.00726584
0.00962465
0.0144324
0.0219231
0.0336384
0.0480129
0.0553262
0.0498316
0.0336124
0.0158988
0.00562902
0.00135703
0.000729562
0.00222411
0.00536416
0.00523885
0.00241206
0.000348989
0.00521943
0.00602427
0.00984839
0.0144903
0.0218305
0.0351534
0.0510994
0.0571144
0.0502759