/*--------------------------------*- C++ -*----------------------------------*\
| =========                 |                                                 |
| \\      /  F ield         | OpenFOAM: The Open Source CFD Toolbox           |
|  \\    /   O peration     | Version:  2406                                  |
|   \\  /    A nd           | Website:  www.openfoam.com                      |
|    \\/     M anipulation  |                                                 |
\*---------------------------------------------------------------------------*/
FoamFile
{
    version     2.0;
    format      ascii;
    arch        "LSB;label=32;scalar=64";
    class       volScalarField;
    location    "100";
    object      k;
}
// * * * * * * * * * * * * * * * * * * * * * * * * * * * * * * * * * * * * * //

dimensions      [0 2 -2 0 0 0 0];

internalField   nonuniform List<scalar> 
238188
(
0.0895954
0.0768166
0.0987435
0.0979449
0.0667058
0.0832905
0.0873134
0.166187
0.0978724
0.0711537
0.0913403
0.0936758
0.146958
0.189077
0.0708213
0.0850869
0.140154
0.220613
0.0957154
0.927576
0.572035
0.983409
0.313273
0.208588
0.313905
0.346984
0.514415
0.21762
0.25732
0.234259
0.282376
1.56833
0.418202
0.168691
0.266194
1.29462
0.406122
0.0279215
0.0159489
0.0152372
0.295471
0.310774
0.293392
0.249271
0.0488312
0.0225943
0.0114495
0.001757
0.000773344
1.19798
0.381219
0.393677
0.252048
0.248436
0.401962
0.132076
0.0556222
0.032838
0.00494723
0.000157865
0.000232715
0.000530044
2.75496
0.684666
0.855285
0.678841
0.440387
0.354333
0.553318
0.200408
0.128176
0.0801619
0.00945334
3.56182e-05
6.15999e-05
0.000125334
0.000445054
8.07856
3.67621
15.867
4.74667
1.54983
1.90167
2.66652
0.5676
0.288162
0.210862
0.129064
0.00920578
0.000196027
8.80366e-05
8.67809e-05
0.000138027
9.48501
14.9426
2.51906
0.675743
0.878894
1.30736
1.55802
0.485202
0.262691
0.188899
0.0674839
0.0045701
0.00420441
0.00177432
0.000432594
0.00017288
0.000240435
2.70393
10.3412
4.58369
0.922611
0.702426
0.601292
0.739658
1.0374
0.269004
0.131341
0.0685295
0.00886604
0.00694932
0.0104269
0.00886509
0.00326969
0.000758271
0.000227035
0.00142515
2.09865
8.32174
2.62893
2.5701
1.87954
0.762715
0.778578
0.278205
0.0858058
0.0381951
0.00877952
0.00163696
0.0033474
0.00584463
0.00706969
0.00443431
0.00149645
0.00040936
0.000598393
1.77684
5.50395
2.82737
3.32851
0.95532
0.658769
0.133761
0.0485197
0.0299806
0.00888249
0.000632683
0.00016791
0.000539769
0.00121919
0.00162739
0.00123792
0.000621468
0.000364643
0.000490355
1.2577
1.23848
2.83423
2.43192
2.26694
0.0363289
0.0266067
0.0230263
0.0186361
0.00974892
0.00135563
6.47449e-05
3.1152e-05
4.10235e-05
9.46484e-05
0.000157465
0.000198964
0.000224372
0.000233848
0.000317927
0.974787
0.915638
1.4623
2.41505
1.56809
0.0125748
0.00554192
0.00357291
0.00114937
0.000213357
0.000244635
0.000396195
0.000521297
0.000402498
0.000104434
4.21996e-05
7.82938e-05
0.000139658
0.000185129
0.000313673
1.31681
1.03815
1.221
2.47368
1.2742
0.498425
0.00211559
0.00051178
0.000171397
8.24782e-05
0.000206531
0.000209169
0.000128369
0.000173908
0.000345477
0.000349729
0.000129072
0.000114985
0.000190965
0.000729275
1.0216
0.56448
1.02867
0.707946
0.552052
0.248292
0.0465096
0.029463
0.00358188
0.000536973
0.000689629
0.000834396
0.000557545
0.000362427
0.000334929
0.000358391
0.000332462
0.000416428
0.0013176
0.673098
0.701154
0.807699
0.511515
0.58496
0.412159
0.0188259
0.019885
0.0696156
0.00739087
0.00138684
0.00162092
0.00145634
0.0012295
0.00163155
0.00158588
0.000856259
0.00205187
0.0116807
0.489908
0.380025
0.639353
0.45679
0.460846
0.430221
0.0558586
0.0340362
0.120607
0.0516968
0.004799
0.00220078
0.00213911
0.00153057
0.0011832
0.00119742
0.00114293
0.00148628
0.327817
0.773126
0.335315
0.296187
0.254617
0.0476041
0.0576059
0.124065
0.0660896
0.0191013
0.00328851
0.00263497
0.0017494
0.000993277
0.000523839
0.000316359
0.000491074
0.436282
0.944842
0.281248
0.186514
0.135737
0.0323806
0.0941867
0.106393
0.0657656
0.0261935
0.00455039
0.00279557
0.00173956
0.000901019
0.000470577
0.000349162
0.903096
0.677199
0.334044
0.236349
0.185723
0.119615
0.0841742
0.0558902
0.0215097
0.00460975
0.00260087
0.00164944
0.000937995
0.000710743
0.315556
0.216456
0.130591
0.085794
0.0533769
0.0325041
0.01254
0.00458478
0.00331918
0.00281363
0.0022829
0.194921
0.0870569
0.0497319
0.0321809
0.0152899
0.00988561
0.0103864
0.0115742
0.0256282
0.0237979
0.0230416
0.664096
0.139973
0.150403
0.142479
0.103032
0.0986689
0.0666648
0.0103791
0.000121392
1.15649
0.25177
0.325161
0.267934
0.325262
0.36481
0.249307
0.188345
0.104789
0.0210566
0.00188295
0.000463082
7.64225e-05
1.75605
0.494267
0.349186
0.441264
0.536154
0.687886
0.591606
0.360536
0.187936
0.0639597
0.0115217
0.00520038
0.00387076
0.00114
0.000115312
6.261
2.95788
2.24859
1.35574
0.795291
0.554198
0.552476
0.434459
0.201032
0.0586357
0.0128491
0.00886757
0.00909025
0.00747184
0.00438672
0.00153273
1.75382
1.44441
1.21345
0.898482
0.210937
0.0739722
0.206854
0.0911541
0.0227672
0.00822624
0.00953991
0.0114379
0.0128297
0.0114994
0.00761637
0.00436618
0.000627881
2.23927
1.0461
0.885343
0.926847
0.854167
0.440841
0.0968877
0.0108613
0.00399229
0.00260089
0.00407092
0.00646602
0.00950745
0.0128412
0.0133111
0.00988945
0.00623853
0.00253748
0.000180189
1.0096
0.981989
0.831221
0.865342
0.733826
0.175285
0.0147277
0.00367889
0.00163984
0.000576762
0.00083046
0.00159897
0.00313104
0.00594635
0.0087952
0.00818085
0.00577321
0.00264715
0.000384004
0.932061
1.10415
0.745246
0.577779
0.235129
0.0259349
0.0226224
0.0190697
0.00620194
0.000688804
0.000220409
0.000249897
0.000393481
0.000899981
0.00203046
0.00273637
0.00227281
0.00140965
0.000364902
1.04816
0.841186
1.19123
1.12122
0.151593
0.0295123
0.0187434
0.0136769
0.00665166
0.0020691
0.000788531
0.000479023
0.000321489
0.000261959
0.000259282
0.000305145
0.000364469
0.000412195
0.000400906
0.000208153
0.996626
0.563468
0.770088
1.09143
0.517699
0.0094767
0.00397796
0.00206075
0.0029456
0.00447073
0.00437076
0.00301361
0.00160053
0.000929931
0.000594043
0.000476828
0.00040016
0.000284013
0.000239794
0.000160834
1.14893
0.304255
0.39548
0.638448
0.842295
0.0536772
0.0012763
0.00181067
0.00398458
0.00575332
0.00842024
0.0079355
0.00519772
0.00282065
0.00164932
0.00119507
0.000992725
0.00060426
0.000406235
0.000192019
0.177802
0.244308
0.385789
0.587888
0.401201
0.0162954
0.023288
0.0223077
0.012349
0.00902492
0.0104259
0.00926023
0.00495621
0.00266863
0.00175977
0.0017025
0.00150212
0.0010189
0.00111735
0.163223
0.23062
0.328171
0.444123
0.271419
0.0441651
0.014284
0.0187671
0.0383015
0.0165268
0.0116886
0.0109707
0.00720968
0.00347321
0.00186235
0.00134672
0.00140152
0.00165991
0.00777686
0.645155
0.153107
0.150013
0.30325
0.159455
0.0532426
0.0159512
0.0224422
0.0473702
0.029276
0.0159193
0.011764
0.00759342
0.00393742
0.00214818
0.00153675
0.0010626
0.00116091
0.143142
0.127238
0.206647
0.116482
0.0572377
0.0153759
0.0261126
0.0354235
0.0362209
0.0183689
0.0105942
0.0062723
0.00349734
0.00240871
0.00210574
0.00120398
0.000530584
0.390535
0.143202
0.144604
0.0926813
0.0454765
0.0125386
0.0244005
0.0301068
0.0255333
0.012907
0.00679657
0.00388589
0.00282308
0.00305354
0.0027199
0.000749063
0.252954
0.109251
0.0634432
0.0313803
0.0112225
0.0101802
0.0142803
0.0109545
0.00588832
0.00323869
0.00264878
0.00314977
0.00319361
0.00103427
0.0334182
0.0174576
0.0111844
0.00805774
0.00538856
0.00325663
0.00263247
0.00295992
0.00337005
0.00265096
0.00146396
0.0189133
0.0102244
0.00617361
0.0040997
0.00313048
0.00430767
0.0062577
0.00639557
0.0374162
0.033929
0.0337832
0.850578
0.164718
0.160804
0.157187
0.144952
0.122266
0.0818627
0.0210436
0.000229674
1.60508
0.40244
0.510025
0.413176
0.336036
0.2574
0.162602
0.0892024
0.0692733
0.0154602
0.00298595
0.000988305
0.000278995
1.08457
0.392877
0.370493
0.242871
0.236959
0.203711
0.135093
0.0629093
0.0234897
0.0124353
0.0125835
0.00959919
0.00576023
0.00211599
0.00047856
2.63017
0.606546
0.161138
0.0543733
0.0490059
0.0446391
0.0371768
0.0243686
0.0163443
0.0151356
0.015844
0.0167443
0.0171302
0.0129785
0.00882289
0.00261056
0.985148
0.14527
0.0104876
0.00676954
0.00627532
0.00672886
0.00830394
0.0112097
0.0153249
0.018894
0.0215414
0.0229422
0.0231936
0.0219374
0.0157385
0.00761099
0.00184819
1.83472
0.610598
0.214218
0.0255989
0.00366641
0.00347236
0.00364116
0.00437107
0.00625521
0.00977046
0.0142473
0.0192754
0.0240373
0.0273508
0.0263216
0.0184284
0.0104958
0.00455636
0.000733935
0.798516
0.581649
0.234755
0.0252795
0.00465191
0.00378716
0.00315129
0.00251015
0.00265676
0.00347104
0.00489103
0.00763499
0.0123539
0.0190568
0.0230086
0.0167585
0.0101525
0.00474787
0.00191044
0.455763
0.151715
0.0550511
0.00773997
0.00695696
0.00605228
0.0047696
0.00306725
0.00222623
0.00217983
0.00218147
0.00232932
0.00333793
0.00607779
0.00990497
0.00888831
0.00501794
0.00354572
0.00159798
1.01876
0.237543
0.197454
0.0762258
0.00752054
0.00656773
0.0051351
0.00407505
0.0042014
0.00399167
0.0036243
0.00278443
0.0018635
0.00151495
0.00155081
0.00184805
0.00183697
0.00121223
0.00098851
0.00061661
0.860829
0.180808
0.294244
0.346422
0.0326121
0.0113766
0.0103855
0.00798884
0.00944227
0.0100898
0.00916733
0.00543613
0.0028668
0.0017804
0.00122802
0.000937756
0.000718438
0.000573801
0.000445151
0.000288667
1.05301
0.130011
0.244469
0.387155
0.214801
0.0168791
0.00474181
0.00758422
0.0118857
0.0162348
0.01935
0.0106788
0.004693
0.00242984
0.00148628
0.00101979
0.00080994
0.000651365
0.000496012
0.000299696
0.104104
0.209818
0.321956
0.252186
0.0597798
0.00825465
0.0117519
0.0173532
0.0232816
0.0339171
0.0176488
0.00695548
0.00334682
0.0019011
0.00119859
0.000874151
0.000842174
0.000653501
0.000405944
0.10648
0.158944
0.240832
0.184638
0.0454164
0.00932834
0.020558
0.0306001
0.0407441
0.0473071
0.0229892
0.00925923
0.00433394
0.00236199
0.00140954
0.000924666
0.000826568
0.000777481
0.00124039
0.545386
0.121302
0.185111
0.113136
0.0238599
0.00949478
0.0281175
0.03982
0.0505364
0.0589109
0.023016
0.00974282
0.00463993
0.00254698
0.00151537
0.00108155
0.00081384
0.000827058
0.0934513
0.0930413
0.0747069
0.0138008
0.00681336
0.0237533
0.042329
0.0480662
0.0445312
0.018451
0.00814984
0.00407197
0.00233638
0.00164575
0.00099538
0.000880034
0.000617916
0.0803539
0.0615565
0.0415844
0.0170936
0.00856373
0.0150485
0.0308745
0.0395794
0.0235397
0.0104331
0.00517666
0.00297074
0.00207452
0.0013108
0.00112833
0.00104597
0.0768872
0.0460255
0.0244082
0.0125413
0.00971448
0.0146203
0.0118735
0.00641901
0.00375343
0.00282723
0.00213449
0.00191833
0.00198607
0.00178035
0.0139057
0.00914084
0.0062072
0.00462426
0.00313208
0.00225344
0.0025168
0.00314053
0.0034311
0.00280117
0.0017971
0.0261068
0.0160305
0.00897992
0.00577907
0.00494339
0.00580649
0.00705992
0.00671006
0.0428631
0.0410376
0.0387872
1.02709
0.206122
0.224226
0.19908
0.164618
0.11563
0.0667615
0.0147055
0.000212453
2.52403
0.791303
0.672149
0.49378
0.288116
0.203571
0.121775
0.0623816
0.0479483
0.0116408
0.00312856
0.000886827
0.000219883
1.97907
0.313607
0.260479
0.164666
0.149201
0.120567
0.0815908
0.0406983
0.0175835
0.0114358
0.0124144
0.0111622
0.00731891
0.00207042
0.000352508
5.07996
0.0937554
0.0628189
0.0288101
0.0273144
0.0277532
0.0259501
0.0214734
0.0177453
0.0170792
0.0172247
0.017656
0.0181357
0.0148661
0.0110801
0.00275055
0.692666
0.0317647
0.00686695
0.00594602
0.00743024
0.0100189
0.0134688
0.0173105
0.0210429
0.0245598
0.027269
0.0282422
0.027293
0.0258222
0.0205351
0.00741613
0.00145364
1.89086
0.233885
0.00917428
0.00467947
0.00517999
0.00658671
0.00857002
0.0114543
0.0152996
0.0199503
0.0255075
0.0319012
0.0377351
0.039391
0.0366612
0.0279873
0.012915
0.00548498
0.000534636
0.654574
0.0781541
0.00643803
0.00560425
0.00633046
0.00767811
0.00883111
0.00968714
0.0101351
0.0110198
0.0141923
0.0213453
0.0315171
0.0422669
0.0468978
0.034175
0.0184251
0.0089143
0.00216633
0.209354
0.0164018
0.00615547
0.00816742
0.0101739
0.012476
0.0146283
0.0156306
0.0137698
0.00943928
0.00573386
0.006894
0.0123381
0.022454
0.0368134
0.0315477
0.0155164
0.0099778
0.0038989
1.13826
0.106401
0.0107185
0.00900794
0.0161868
0.0237845
0.0312368
0.0352277
0.036609
0.0309684
0.0192749
0.00701361
0.00300299
0.00333586
0.00607706
0.0136415
0.0162688
0.00875846
0.00600556
0.00289382
1.3983
0.0479482
0.0152536
0.042144
0.0297116
0.0538315
0.0719902
0.087308
0.0864408
0.0710694
0.0439844
0.0144125
0.00370425
0.00200118
0.00197773
0.00340437
0.00449772
0.00242444
0.00169276
0.000986133
2.17157
0.0189078
0.0367645
0.116028
0.0417425
0.0370089
0.0598436
0.0976602
0.136803
0.137866
0.087322
0.0285028
0.00604668
0.00242006
0.00139003
0.00119499
0.00114325
0.000684957
0.000482371
0.000329698
0.0231822
0.0439061
0.146641
0.0950655
0.0249074
0.0408773
0.088791
0.128941
0.147111
0.126831
0.041772
0.00905333
0.00328803
0.00163641
0.001015
0.000782054
0.000605663
0.000384925
0.000339688
0.046532
0.064459
0.12241
0.0860495
0.0172801
0.0289283
0.0733515
0.104277
0.11949
0.117706
0.0366735
0.0110609
0.00414727
0.00199923
0.00115428
0.000804868
0.000607572
0.000408798
0.000508378
0.563977
0.064582
0.104858
0.0578862
0.010075
0.0197287
0.058722
0.0812237
0.0867643
0.0789815
0.0304669
0.0105891
0.00439136
0.00220008
0.00126538
0.000945148
0.000574175
0.000480758
0.0419371
0.060325
0.0405406
0.0069916
0.012356
0.040044
0.0613689
0.0624907
0.0496038
0.0213794
0.00844581
0.00401542
0.00218553
0.00158497
0.000922162
0.000707083
0.000832661
0.0380761
0.0304886
0.0173854
0.00538878
0.00767607
0.024411
0.0404478
0.0448003
0.0273592
0.0118618
0.00565941
0.00325024
0.0022926
0.00146754
0.00110426
0.000958633
0.0353602
0.0163659
0.00877172
0.00668354
0.0142446
0.0193513
0.0141123
0.00755122
0.00453046
0.00339374
0.00252305
0.00188405
0.00142418
0.00114201
0.0107312
0.00778059
0.00564836
0.00488282
0.00344021
0.00299256
0.00321612
0.00343917
0.0031666
0.00213404
0.00119591
0.0395655
0.0231271
0.0125871
0.00785203
0.00636442
0.00659683
0.0072395
0.0067385
0.0607618
0.065632
0.0367472
0.833246
0.500311
0.317898
0.23673
0.159011
0.0910883
0.0415512
0.00606656
0.000108052
2.55141
0.742344
0.699715
0.536649
0.306443
0.199343
0.108487
0.0532668
0.0360511
0.00769507
0.00206962
0.000554856
0.000120077
2.76612
0.30641
0.218386
0.165462
0.154501
0.122841
0.0868176
0.0469707
0.0196943
0.00970228
0.0103511
0.00915745
0.00632938
0.00164584
0.000183642
7.32315
0.0883264
0.0564772
0.0378629
0.0377739
0.0364872
0.0316366
0.0257362
0.0214521
0.0201576
0.0186981
0.0174682
0.0174132
0.0154379
0.0122916
0.00217291
0.190151
0.016858
0.0086916
0.00956798
0.0114119
0.0137649
0.016136
0.0187291
0.0221701
0.0266256
0.0303038
0.0311791
0.0286895
0.0264132
0.0228988
0.00666837
0.000955302
2.10349
0.071228
0.0080712
0.00843996
0.00989699
0.0114835
0.0133224
0.0152404
0.0174096
0.0203705
0.0251447
0.0322
0.0400561
0.04302
0.039688
0.033179
0.0122824
0.00558633
0.000328117
1.23239
0.0342967
0.00794192
0.0107882
0.0121067
0.0136474
0.0146124
0.0152533
0.0155689
0.0164353
0.0197611
0.0264003
0.0373794
0.0499919
0.0537735
0.0441571
0.0187268
0.00943406
0.00132301
0.214807
0.00841952
0.00889414
0.0147361
0.0189753
0.021891
0.023953
0.0230499
0.0193503
0.0143222
0.011888
0.0145932
0.0226023
0.0368091
0.0522861
0.0475596
0.0205926
0.0110424
0.00270004
2.19595
0.0543818
0.00582333
0.0126603
0.0264849
0.0438132
0.0591709
0.0626909
0.0564777
0.0433947
0.0245223
0.0103267
0.00611877
0.00878431
0.0160562
0.0284762
0.0357337
0.0163854
0.00950232
0.00248916
2.34326
0.0139656
0.00563387
0.0148587
0.0355162
0.0620234
0.0942649
0.120986
0.128378
0.0980687
0.0569671
0.020098
0.00468115
0.00316786
0.00455722
0.00874445
0.0165232
0.00875411
0.00519448
0.00139764
3.03964
0.0135319
0.00655425
0.0166713
0.0388719
0.0710568
0.112534
0.151549
0.177587
0.159712
0.095621
0.0385878
0.00742999
0.00275677
0.00185967
0.00215737
0.00443673
0.00249382
0.00141516
0.000473759
0.0282719
0.0072732
0.0338961
0.0371217
0.0418508
0.0959584
0.13959
0.171664
0.163286
0.114203
0.0517675
0.0113921
0.00371611
0.00183682
0.000938484
0.0010043
0.000814124
0.000375622
0.00029303
0.0341155
0.0204595
0.0493826
0.0373643
0.0199978
0.0659072
0.10828
0.133542
0.124071
0.0933184
0.0443457
0.0137678
0.00486352
0.00224014
0.000912606
0.000516629
0.00048601
0.000345776
0.000386555
0.573096
0.0271065
0.0502104
0.0277183
0.0105747
0.0411652
0.0788423
0.0974445
0.0874211
0.0648611
0.0327073
0.0124889
0.00525067
0.00252172
0.000990889
0.000632618
0.000504704
0.000414586
0.0191872
0.0315242
0.0200226
0.00649217
0.022724
0.0515238
0.0669456
0.0606351
0.0451416
0.0233566
0.00994363
0.00481578
0.00248182
0.00118859
0.000659574
0.000558147
0.00054402
0.0730926
0.0141961
0.00869167
0.00379102
0.0122081
0.0308088
0.0421397
0.0422518
0.0277257
0.0133078
0.00648182
0.00363848
0.0023455
0.00106742
0.000609423
0.000445609
0.0447007
0.00812149
0.00408578
0.00728623
0.0173293
0.0195254
0.0139095
0.00797622
0.00481584
0.0035132
0.00238168
0.00169393
0.001084
0.00048953
0.0126369
0.00747467
0.0054435
0.00450436
0.00328494
0.00305799
0.00318601
0.00328873
0.0030229
0.00209654
0.00122296
0.0398352
0.0218876
0.0120214
0.00766018
0.00609285
0.00606089
0.00660082
0.00622299
0.108868
0.0536212
0.0487214
0.691708
0.834211
0.422456
0.275672
0.126257
0.0535507
0.0193768
0.00151278
3.92961e-05
1.67949
0.517084
0.54345
0.496463
0.266
0.137902
0.0689143
0.033479
0.020002
0.00339668
0.000830404
0.000241528
6.03773e-05
2.22479
0.335077
0.240392
0.16249
0.137024
0.110494
0.0795495
0.0432375
0.0171712
0.00656407
0.00622426
0.00500579
0.00360478
0.000972598
7.32548e-05
6.31098
0.161591
0.093149
0.0534843
0.0472872
0.0433759
0.0388527
0.0328786
0.0272579
0.0250727
0.0219938
0.0180135
0.0152236
0.0120184
0.00913843
0.000993194
0.0923809
0.0214514
0.0139661
0.0133303
0.0143453
0.0158959
0.018018
0.0209505
0.0251285
0.0309287
0.0361523
0.0374479
0.0315473
0.0246526
0.0196585
0.00581951
0.000439063
2.36847
0.0355446
0.00790391
0.00759649
0.00889319
0.0103161
0.0118912
0.0135169
0.0151052
0.0173394
0.0221195
0.0313674
0.0432497
0.0488961
0.042945
0.0327481
0.0139971
0.00285731
0.00012516
1.39335
0.0152514
0.00806635
0.0103159
0.012303
0.014032
0.0162756
0.0177028
0.0175356
0.0157588
0.0155056
0.0215977
0.0356611
0.0534323
0.0591362
0.0496359
0.0231996
0.00508908
0.000342993
0.102104
0.0097467
0.012358
0.0207293
0.0283986
0.0342521
0.0361695
0.0368128
0.0331413
0.023223
0.0135576
0.0125717
0.0222085
0.0402978
0.0581768
0.055462
0.0271267
0.0075426
0.000742248
3.10175
0.0247092
0.0108333
0.0209376
0.0384155
0.0557508
0.0720806
0.0854589
0.0886723
0.0770787
0.0502609
0.0206897
0.0076204
0.0103178
0.0209385
0.0375721
0.044271
0.0232284
0.00870387
0.0010494
3.47929
0.0136404
0.0132848
0.0285619
0.0534783
0.0809949
0.110701
0.140953
0.160122
0.139491
0.0925155
0.0403329
0.00862369
0.0043551
0.00745211
0.0157629
0.024651
0.0150718
0.00599847
0.000851996
3.93239
0.0370594
0.0127187
0.0311181
0.057452
0.0926352
0.13445
0.184898
0.224567
0.202431
0.129137
0.0631612
0.0140053
0.0038662
0.00283687
0.00446056
0.00857249
0.00661145
0.00221131
0.000380461
0.0790904
0.00846499
0.0252501
0.043503
0.0798786
0.121723
0.174373
0.212689
0.192754
0.132511
0.0740295
0.0197677
0.00528604
0.00245366
0.00150429
0.0021794
0.00219843
0.000336222
0.000184721
0.160856
0.00703395
0.0207076
0.0246598
0.0498378
0.0857818
0.12337
0.148537
0.136614
0.102024
0.0574468
0.0203831
0.00675709
0.00298234
0.00122934
0.000530363
0.000489735
0.000321685
0.00017927
0.483892
0.00995947
0.0221045
0.014978
0.0253926
0.0516942
0.0778141
0.0932307
0.0856047
0.0657155
0.0378554
0.0158759
0.00658218
0.00317388
0.00130108
0.000346059
0.000283474
0.00045223
0.0156913
0.0136919
0.0100095
0.011594
0.0272525
0.0447407
0.0552471
0.0522384
0.0408349
0.0240639
0.0110221
0.0053648
0.00280901
0.00142259
0.000393988
0.000229126
0.00143462
0.0991492
0.00654356
0.00417387
0.00526564
0.0139606
0.0254985
0.0328818
0.0338593
0.0238367
0.0125402
0.00628195
0.00355418
0.00230849
0.00101591
0.000427168
0.00021102
0.0441758
0.00650046
0.00363445
0.0072352
0.0138915
0.0145186
0.0103861
0.00627306
0.00396969
0.00298092
0.00206264
0.00148478
0.000970615
0.00044754
0.00971827
0.00564763
0.00422496
0.00336012
0.00260533
0.00254266
0.00268908
0.00281734
0.00262761
0.00191509
0.00119377
0.0297603
0.0167422
0.00950491
0.00620086
0.00502091
0.00507674
0.00559824
0.00539046
0.100027
0.014418
0.0108173
0.560978
0.765872
0.572697
0.253784
0.126626
0.0330287
0.00773089
0.000279538
2.18331e-05
0.944554
0.46406
0.477087
0.376925
0.125382
0.0847637
0.0421082
0.0156724
0.00660007
0.000872543
0.000311166
9.58645e-05
6.98871e-05
0.975334
0.346347
0.289039
0.135069
0.0920901
0.0744176
0.0543381
0.0260379
0.00786344
0.00307181
0.00315239
0.00203233
0.00159291
0.000480575
2.7461e-05
4.25666
0.261256
0.163536
0.0761863
0.0604766
0.0540203
0.0479046
0.0395447
0.0324846
0.0306073
0.0269387
0.019755
0.0129792
0.00777591
0.00503623
0.000406905
0.299113
0.0880749
0.0357958
0.027572
0.0251599
0.0246629
0.0256964
0.0277761
0.031092
0.0366713
0.0437727
0.0475815
0.039012
0.0239726
0.0149901
0.00361132
0.000128421
2.73764
0.127698
0.0301161
0.0132537
0.0127319
0.0143885
0.0165167
0.0186827
0.0202971
0.0209281
0.0235782
0.032991
0.0494768
0.0605663
0.051272
0.0315057
0.0114301
0.000681125
4.06521e-05
1.92022
0.0612225
0.0188182
0.0144127
0.016831
0.0200341
0.0227527
0.0254536
0.0260251
0.0215154
0.0168582
0.0200353
0.0369308
0.0617059
0.0717376
0.0587523
0.0256927
0.000883697
6.82597e-05
0.229834
0.0259325
0.022891
0.028787
0.0378603
0.0459292
0.0520052
0.0538062
0.0510189
0.0367609
0.0197305
0.0122698
0.0221961
0.0464253
0.0685479
0.0660665
0.0349725
0.000852397
0.00010748
3.71768
0.034851
0.0281853
0.0376165
0.0518632
0.0688211
0.0873234
0.105323
0.114327
0.101873
0.0704004
0.0343402
0.0105041
0.0107309
0.0262849
0.0493735
0.0538227
0.0337199
0.000715327
0.000170735
4.60398
0.0266921
0.0376338
0.0532998
0.0748851
0.103688
0.142103
0.186418
0.214388
0.189199
0.122642
0.0593755
0.0151362
0.00531158
0.0104817
0.0259728
0.0363972
0.0249926
0.00053832
0.000194002
5.28712
0.0199954
0.0460588
0.0639397
0.0896979
0.125859
0.179259
0.250308
0.296686
0.258395
0.170023
0.0870736
0.0235386
0.00526252
0.00382707
0.00848275
0.0168401
0.0127961
0.000363122
0.000127424
0.0154838
0.0442393
0.0679599
0.0897286
0.125167
0.178669
0.247065
0.27593
0.237037
0.164363
0.0968588
0.0315469
0.00728089
0.00304685
0.00246021
0.00560057
0.00559286
0.000304046
8.63382e-05
0.0755822
0.0080345
0.043761
0.0684412
0.0994878
0.136033
0.177235
0.189663
0.167345
0.122948
0.073078
0.0281233
0.00896676
0.00365731
0.00154997
0.00129702
0.00271709
0.000692896
0.000563549
0.374634
0.00325873
0.0210523
0.0333176
0.0578607
0.0838113
0.107126
0.112626
0.0987316
0.0752263
0.0444122
0.0190942
0.00770477
0.00359092
0.00150833
0.000495776
0.000637132
0.00163001
0.00895863
0.00662869
0.0149218
0.0275302
0.0435694
0.0577448
0.0622697
0.0562114
0.0422226
0.0245536
0.0113856
0.0054726
0.00286153
0.00148528
0.000425996
0.000234424
0.00233163
0.0450286
0.00411359
0.00403195
0.0127267
0.0228038
0.0319889
0.0349557
0.0317255
0.0212794
0.0112858
0.00568453
0.00323362
0.00211738
0.000901798
0.000401855
0.000201511
0.0283976
0.00527347
0.00555958
0.0111168
0.0172234
0.0138531
0.00896636
0.00533828
0.00335371
0.00250266
0.00170786
0.00122511
0.000824376
0.000409069
0.00759256
0.00467677
0.00354511
0.00260313
0.00200438
0.00199263
0.00212717
0.00223853
0.00208249
0.00156682
0.00102695
0.025875
0.0137925
0.00751578
0.00478924
0.00388434
0.00396095
0.00438788
0.00425224
0.0411715
0.00782922
0.0073717
0.336525
0.422684
0.443451
0.157945
0.0834969
0.0113239
0.0016741
5.42973e-05
2.83289e-05
0.612462
0.459138
0.394978
0.179989
0.0907864
0.0664962
0.0284796
0.00608395
0.00156031
0.000217846
0.0001193
3.84419e-05
0.000130494
0.441804
0.343051
0.288098
0.0840551
0.058289
0.0542383
0.0387891
0.0148531
0.00329599
0.00163516
0.00138858
0.000744311
0.00071199
0.000217756
3.3125e-05
2.13479
0.258458
0.199315
0.0863947
0.0635169
0.0565596
0.0504608
0.0409759
0.0357961
0.0358655
0.0331109
0.0242856
0.0124307
0.00471345
0.00273294
0.000168023
0.330011
0.191109
0.0667713
0.0446538
0.0380648
0.0355414
0.0340598
0.034288
0.0362587
0.0407849
0.0492483
0.058646
0.0536856
0.0287157
0.0112424
0.00192958
3.62587e-05
3.04282
0.120071
0.0734483
0.0359241
0.0262554
0.0239646
0.0236027
0.0242263
0.0247567
0.0245124
0.025327
0.0324019
0.0512339
0.074262
0.0690559
0.0336993
0.00760768
0.000192221
6.77721e-05
1.07572
0.111347
0.044986
0.0315769
0.0304859
0.0319971
0.0329147
0.0322415
0.0304759
0.025763
0.019521
0.01881
0.0329793
0.0657929
0.0919075
0.0783318
0.0250508
0.000422638
6.12948e-05
0.059306
0.0460967
0.0408685
0.0434923
0.0517747
0.0609323
0.0674253
0.0673395
0.058918
0.0434002
0.0254018
0.013856
0.0190784
0.0465616
0.0813909
0.0890724
0.0537096
0.00107611
3.17542e-05
2.66744
0.0326071
0.0434177
0.0512932
0.0674529
0.0903561
0.117391
0.142795
0.153089
0.133435
0.0861484
0.0440613
0.0157821
0.0106506
0.0278947
0.0600511
0.0720567
0.0524277
0.00178198
3.30135e-05
2.82275
0.0392704
0.0502649
0.0658832
0.0939601
0.134556
0.18912
0.249208
0.281456
0.245011
0.1581
0.0763004
0.0243284
0.00710917
0.0128961
0.0366874
0.0534563
0.041068
0.00247295
4.0556e-05
2.95563
0.0382554
0.0573502
0.0770848
0.111254
0.162561
0.238059
0.328066
0.373037
0.321797
0.217679
0.111666
0.0359712
0.00802759
0.00523104
0.0150328
0.0310816
0.0256229
0.00212673
7.53512e-05
0.0348029
0.0570069
0.0836875
0.11544
0.163929
0.246217
0.33186
0.357614
0.300951
0.213444
0.124068
0.0453965
0.0109603
0.00376815
0.00425916
0.0132481
0.0146368
0.00162839
0.000898666
0.00986804
0.0489654
0.0840829
0.114182
0.14926
0.202032
0.249814
0.260354
0.224204
0.163628
0.0953717
0.0374563
0.0118608
0.00439905
0.00176133
0.00235636
0.00805271
0.00421232
0.00331455
0.165776
0.018497
0.0646311
0.0885746
0.114322
0.144103
0.164353
0.16089
0.13813
0.09997
0.055721
0.0230504
0.00889611
0.00392483
0.00161211
0.00051137
0.000843819
0.0031853
0.0128542
0.0256025
0.0497129
0.0718267
0.0900861
0.101185
0.0961059
0.0801025
0.0528448
0.0275271
0.0121025
0.00556997
0.00283091
0.00143551
0.00037863
0.000253287
0.000951135
0.0255948
0.0100154
0.0203844
0.0409371
0.0525415
0.0573982
0.0526018
0.0384644
0.0226867
0.0112701
0.00547535
0.00301305
0.00191852
0.000758665
0.000334821
0.000200908
0.021054
0.00618026
0.0142217
0.0257507
0.0307157
0.0171089
0.00947715
0.005237
0.00310058
0.00220248
0.0014001
0.000963878
0.000638268
0.000317716
0.00711252
0.0048366
0.00373852
0.00232724
0.00165175
0.00159522
0.00168547
0.00175774
0.00159661
0.00118738
0.000769196
0.0230672
0.0114173
0.00595816
0.00369372
0.00300529
0.00309563
0.00339609
0.00319939
0.00812656
0.00436132
0.0050874
0.145112
0.205796
0.148784
0.066859
0.0189531
0.00146356
0.000216892
8.7626e-05
0.000102277
0.497435
0.349965
0.243596
0.0993638
0.0492862
0.0411361
0.0123272
0.00164487
0.000374655
6.90871e-05
5.13467e-05
4.67094e-05
0.000147051
0.384002
0.316555
0.192402
0.0401293
0.0357504
0.0356902
0.0267327
0.00888102
0.00394277
0.00372958
0.00229208
0.000243433
0.000286416
9.22084e-05
9.91315e-05
1.07939
0.205437
0.167875
0.0552831
0.0416969
0.0418193
0.0435436
0.0413892
0.0410829
0.0427609
0.0416303
0.0350928
0.0190812
0.00280947
0.00145663
5.9168e-05
0.133065
0.144141
0.0618075
0.0447997
0.0408936
0.0417971
0.0425308
0.0415987
0.0409853
0.0430662
0.0506449
0.0650463
0.074923
0.0493536
0.00802733
0.000798861
3.36565e-05
1.59852
0.12616
0.0613456
0.0432269
0.0359374
0.0351346
0.0360873
0.0357968
0.0336401
0.0295452
0.02698
0.0300769
0.0451927
0.0786027
0.0997182
0.0556363
0.00326951
7.33767e-05
0.00075881
0.161048
0.0734877
0.0471666
0.0437804
0.0469469
0.0522367
0.0555108
0.0529907
0.0446178
0.0330509
0.0226154
0.0179513
0.024525
0.0552715
0.108795
0.117723
0.0220601
0.00038818
0.000549582
0.0595121
0.0442281
0.0505865
0.0621349
0.0778153
0.0933802
0.103942
0.102239
0.0849636
0.056074
0.0315233
0.0163125
0.0137926
0.0339655
0.0842105
0.125759
0.0912073
0.00403844
0.000260988
0.697861
0.0400469
0.0526971
0.0670337
0.0930617
0.125884
0.163205
0.19737
0.209183
0.177327
0.110745
0.0543891
0.0221154
0.0095479
0.0197136
0.0600749
0.100055
0.0976927
0.010474
0.000173007
0.816211
0.0361941
0.0625251
0.0840851
0.122751
0.176543
0.247369
0.320697
0.354076
0.305385
0.19702
0.0934073
0.0341442
0.00931285
0.0105386
0.0385257
0.0743247
0.0789325
0.0184969
0.00021297
0.961572
0.0311871
0.0637574
0.092586
0.13857
0.206946
0.305379
0.413612
0.456973
0.401496
0.27468
0.137037
0.0491793
0.0121062
0.00584173
0.0183604
0.0489309
0.0549779
0.0204002
0.000498
0.0242643
0.0523427
0.0938389
0.138959
0.206855
0.315621
0.426868
0.45993
0.399748
0.283574
0.159445
0.0606469
0.0160721
0.0052191
0.00605924
0.0249739
0.0361907
0.017813
0.00124558
0.0232073
0.0449987
0.0921306
0.135073
0.191218
0.268203
0.337801
0.365906
0.320976
0.231071
0.130395
0.0511901
0.0162524
0.00582848
0.00227881
0.0057371
0.0188041
0.0161746
0.00111477
0.0451916
0.0395232
0.081731
0.122734
0.161275
0.206146
0.236997
0.237808
0.205228
0.144781
0.0774161
0.0311609
0.0115684
0.00484783
0.0019634
0.000543747
0.0015504
0.00837113
0.0186816
0.0660826
0.0941886
0.120887
0.146196
0.157159
0.146596
0.117678
0.0739346
0.0362027
0.0151665
0.0066504
0.0032016
0.00154606
0.000326162
0.000283232
0.000808931
0.0185051
0.0187062
0.0517357
0.0723076
0.0872027
0.0891203
0.079406
0.0540775
0.0296039
0.0138661
0.00642895
0.00332079
0.00197724
0.000660738
0.000254002
0.000189889
0.0179605
0.00811832
0.022743
0.0396958
0.0443345
0.0206018
0.0105484
0.0056141
0.00316028
0.00211049
0.00119382
0.000759139
0.00047069
0.000219328
0.0069809
0.00527638
0.00419975
0.00232026
0.00147817
0.00133253
0.00136143
0.00138412
0.00121461
0.000877114
0.000537197
0.0193259
0.00920236
0.00468001
0.00284091
0.00231351
0.0023869
0.00258402
0.00238332
0.00365946
0.00442538
0.00271953
0.0764705
0.1425
0.0631016
0.0217517
0.00432407
0.000451064
0.000359828
0.000411618
0.000579106
0.303207
0.167503
0.18481
0.0606919
0.0191609
0.0147624
0.00385145
0.00183252
0.000607222
0.000873604
0.000409889
0.000234381
0.000301563
0.309198
0.169389
0.0501539
0.0211775
0.0193366