/*--------------------------------*- C++ -*----------------------------------*\
| =========                 |                                                 |
| \\      /  F ield         | OpenFOAM: The Open Source CFD Toolbox           |
|  \\    /   O peration     | Version:  2406                                  |
|   \\  /    A nd           | Website:  www.openfoam.com                      |
|    \\/     M anipulation  |                                                 |
\*---------------------------------------------------------------------------*/
FoamFile
{
    version     2.0;
    format      ascii;
    arch        "LSB;label=32;scalar=64";
    class       volScalarField;
    location    "100";
    object      nut;
}
// * * * * * * * * * * * * * * * * * * * * * * * * * * * * * * * * * * * * * //

dimensions      [0 2 -1 0 0 0 0];

internalField   nonuniform List<scalar> 
238188
(
0.00544521
0.00122555
0.00159402
0.00730981
0.00117972
0.00145095
0.00133089
0.00256827
0.0148939
0.00113535
0.00157883
0.00140814
0.00207162
0.00228338
0.0044657
0.00134187
0.00205499
0.00323923
0.00414074
0.0396588
0.00712526
0.0175115
0.00897769
0.00448673
0.00590378
0.00602546
0.0121508
0.00457848
0.00384232
0.00436908
0.00469405
0.0353593
0.0124462
0.0037058
0.00355135
0.0348653
0.00831035
0.00555023
0.00974957
0.00651482
0.0150232
0.0189654
0.0250292
0.0327753
0.0295845
0.0512385
0.0247996
0.00174027
0.000252532
0.0264046
0.019905
0.0275242
0.0202771
0.0205664
0.0377539
0.0794893
0.137691
0.0830597
0.0134683
9.14345e-05
8.73912e-05
0.000114295
0.0406055
0.0368311
0.039871
0.0267381
0.0280683
0.0372775
0.0908529
0.271477
0.197535
0.119031
0.0154794
2.31128e-05
3.16439e-05
4.31467e-05
9.06337e-05
0.0694814
0.0841496
0.178124
0.0554442
0.0258876
0.0281278
0.0325234
0.192303
0.316627
0.22543
0.120727
0.00689063
8.63504e-05
4.0178e-05
3.83602e-05
4.16246e-05
0.161113
0.178094
0.0363114
0.0174075
0.0205772
0.0271538
0.0306119
0.0407765
0.249583
0.155348
0.0413551
0.00206904
0.00176318
0.000698176
0.000175193
7.42343e-05
5.15406e-05
0.0393709
0.172164
0.076247
0.0224801
0.0182953
0.0146804
0.0156708
0.018126
0.0652235
0.129544
0.0516142
0.00427382
0.00275926
0.00403592
0.00334307
0.00123482
0.000333933
6.76935e-05
0.000150556
0.0496394
0.162712
0.058553
0.0665261
0.0530652
0.0234646
0.0208275
0.00832819
0.0673784
0.0486362
0.00756126
0.000688655
0.00128318
0.00218924
0.00259886
0.0016654
0.000628422
0.000173673
9.6778e-05
0.0493848
0.129282
0.0673695
0.0785649
0.0379942
0.0272151
0.00709392
0.0171609
0.0468041
0.0148749
0.000695442
7.11669e-05
0.000216781
0.000479594
0.000637923
0.00049085
0.000250203
0.000129663
6.78358e-05
0.0199974
0.0380415
0.0708091
0.0548823
0.0579597
0.0042822
0.00419997
0.00928662
0.0234226
0.0126714
0.00108947
1.01727e-05
4.57532e-06
1.25643e-05
3.77198e-05
6.1644e-05
7.41262e-05
7.59129e-05
6.85154e-05
5.19815e-05
0.0238813
0.0314563
0.0444342
0.0543123
0.0475278
0.00140569
0.00193298
0.0027962
0.000877429
4.99073e-05
3.58151e-05
4.91968e-05
5.383e-05
3.68013e-05
1.24189e-05
1.19385e-05
2.61188e-05
4.131e-05
4.8312e-05
5.73532e-05
0.0213677
0.0331383
0.0378409
0.054588
0.0334547
0.017526
0.000177167
6.40732e-05
2.55417e-05
2.36529e-05
5.42148e-05
5.48654e-05
3.6257e-05
3.49394e-05
4.5962e-05
3.47013e-05
2.04956e-05
3.56143e-05
4.66707e-05
0.00011318
0.0262612
0.0232631
0.033435
0.0203393
0.0219032
0.00986675
0.00414381
0.00266096
0.000479926
0.000163031
0.000179896
0.000204872
0.000174265
0.000167981
0.000117481
5.26502e-05
5.25465e-05
9.99077e-05
0.000206776
0.0167857
0.0229953
0.0288864
0.0213135
0.0252662
0.016478
0.00203934
0.00238543
0.00627554
0.00127019
0.000370387
0.000390114
0.000399421
0.000475434
0.000790566
0.000656369
0.000169669
0.000310135
0.00183012
0.0133819
0.0161179
0.0294493
0.0233352
0.022176
0.0187538
0.00404893
0.00384983
0.00977474
0.00645382
0.0011192
0.000460972
0.000458233
0.000425332
0.000463045
0.000583732
0.000578257
0.000614272
0.0183758
0.0366634
0.0188604
0.0164299
0.0140334
0.00347242
0.00435588
0.00971275
0.00719642
0.00376498
0.000703098
0.000506925
0.000401716
0.0003045
0.000222291
0.000206705
0.00020805
0.0213407
0.0423062
0.0153791
0.0121651
0.00927257
0.00249554
0.00604473
0.00848607
0.007473
0.00467529
0.00100592
0.000552099
0.000408369
0.000288923
0.000207466
0.000148907
0.0366294
0.0290652
0.0164121
0.0130023
0.0109784
0.00872578
0.00811192
0.00723643
0.00383707
0.00100973
0.000592996
0.000461726
0.00035405
0.000273609
0.0162982
0.0132662
0.00995814
0.00825168
0.00650817
0.00493829
0.00242056
0.000983692
0.000767388
0.000695439
0.000575513
0.00886615
0.00569575
0.00452989
0.00381409
0.00225522
0.00140526
0.00134261
0.00157231
0.0606592
0.0759598
0.0604131
0.0267094
0.0319372
0.0418915
0.0583849
0.16953
0.1398
0.0800161
0.0122544
5.50274e-05
0.0406556
0.0235859
0.0340983
0.0682735
0.0678498
0.115576
0.281417
0.215469
0.10482
0.0168659
0.00122065
0.000301445
4.67748e-05
0.0622613
0.0314273
0.0515866
0.100125
0.203609
0.264244
0.378975
0.340445
0.194804
0.0640945
0.00925422
0.00384518
0.00268627
0.000709094
6.57023e-05
0.108236
0.0615065
0.048567
0.0359457
0.0274574
0.0970493
0.262751
0.32601
0.185736
0.0575789
0.0112958
0.00749148
0.0077404
0.00618095
0.00322145
0.000920292
0.0433841
0.039938
0.0412258
0.0315053
0.0110898
0.0146535
0.0646909
0.0771499
0.0196502
0.00601401
0.00694383
0.008527
0.00974225
0.00893062
0.00583538
0.00303625
0.000357912
0.0536635
0.0315006
0.0305427
0.0312315
0.0276352
0.0156441
0.00426939
0.00294914
0.00318014
0.00161437
0.00249837
0.00400891
0.00602728
0.00837552
0.00901117
0.00674957
0.00412189
0.00161698
7.32099e-05
0.0341022
0.0332247
0.0341704
0.0341641
0.0278545
0.00825185
0.00120602
0.00266633
0.00126592
0.000318744
0.000449093
0.000888051
0.00176904
0.00339887
0.00513195
0.00476431
0.00333852
0.00158919
0.000199118
0.0386176
0.0408107
0.036251
0.0305111
0.013702
0.00337059
0.00722177
0.0142374
0.00531723
0.000410306
7.96053e-05
9.22347e-05
0.000161772
0.000406875
0.000947529
0.00125623
0.00105245
0.000740541
0.00018557
0.0389755
0.040424
0.0470296
0.0421433
0.0115693
0.00420215
0.0064489
0.00792748
0.0035208
0.000707783
0.000212691
0.000127988
8.82704e-05
7.58224e-05
8.17787e-05
0.000101135
0.000124266
0.000144661
0.000147624
8.31598e-05
0.038837
0.0340477
0.0398975
0.0415367
0.0223581
0.00217829
0.00176469
0.000708676
0.000783796
0.00112008
0.00105721
0.000741186
0.000401802
0.000236894
0.000162121
0.000140971
0.000123525
8.3216e-05
5.79143e-05
4.9702e-05
0.0402804
0.0227967
0.0281611
0.0295626
0.0328358
0.00311242
0.000364775
0.000398499
0.000779367
0.00125
0.00178924
0.00179669
0.00124422
0.000684094
0.000408244
0.000323313
0.000282231
0.000168618
7.18723e-05
4.20293e-05
0.014118
0.0225444
0.0275815
0.0270139
0.0203968
0.00131701
0.0031379
0.00295965
0.00199606
0.00181477
0.00207358
0.00193042
0.00116649
0.000634513
0.000445274
0.000475799
0.000431351
0.000181009
0.000107977
0.0119618
0.0226716
0.0294834
0.0257222
0.0154928
0.00299331
0.00225035
0.00435707
0.00506449
0.00282826
0.00215459
0.00207555
0.00152941
0.000811929
0.00045997
0.000366425
0.000448862
0.000435767
0.000880492
0.0155677
0.0100995
0.0124554
0.0200964
0.0101976
0.00402876
0.00222278
0.0054787
0.00688675
0.00429274
0.00263016
0.00208264
0.00151742
0.000881
0.000510091
0.000379658
0.000301747
0.000467724
0.00763713
0.0106708
0.0153264
0.00854386
0.0047775
0.0026213
0.00926248
0.00849937
0.00531723
0.0028533
0.0018461
0.00123748
0.000760207
0.000535471
0.000466854
0.000308864
0.000255478
0.015745
0.0115947
0.0118433
0.00746853
0.00408996
0.00182644
0.00986762
0.00956704
0.00439928
0.00213698
0.00125267
0.000796942
0.000593937
0.00060047
0.00055558
0.000218231
0.0119189
0.00908281
0.00561405
0.00315484
0.00149045
0.00234546
0.00227187
0.00167875
0.00101891
0.000630784
0.000532439
0.00060274
0.000641388
0.000310093
0.00288757
0.00181243
0.00132982
0.0010767
0.000806883
0.000545262
0.000452601
0.000523796
0.000671906
0.000644944
0.000542398
0.0011657
0.00075983
0.000574267
0.000470961
0.00042408
0.000652541
0.00105837
0.00125903
0.0916202
0.0919372
0.0765249
0.0299764
0.0574304
0.131461
0.199918
0.22386
0.176263
0.107368
0.0258149
0.000186874
0.0558395
0.0393857
0.0775399
0.19964
0.214794
0.241817
0.195599
0.115719
0.0857061
0.0160642
0.00258774
0.000790065
0.000203954
0.0399128
0.128061
0.148955
0.169633
0.181339
0.172238
0.13828
0.0729805
0.0261578
0.0116938
0.0116444
0.00890831
0.00550469
0.00172541
0.000318256
0.0663569
0.0246768
0.02543
0.0305884
0.0408827
0.0408975
0.0360892
0.0231833
0.0137939
0.0124265
0.0132881
0.0144583
0.0152085
0.0120414
0.00807843
0.00212425
0.0380086
0.00964265
0.00276942
0.00329176
0.00305318
0.0048065
0.00591879
0.00779866
0.010724
0.0135179
0.0159016
0.0175717
0.0184797
0.0180401
0.0131434
0.00654395
0.0012417
0.0531773
0.0292439
0.0128047
0.00177887
0.00147566
0.00246447
0.00245324
0.00275792
0.00377391
0.00578662
0.00847945
0.0118436
0.0154949
0.0186826
0.019127
0.0140259
0.00824113
0.00333496
0.000329677
0.0341851
0.0284852
0.0147439
0.00185222
0.00267646
0.00251771
0.00202805
0.00152115
0.00152432
0.00197916
0.00275383
0.00428472
0.00705585
0.0112799
0.0145825
0.0114121
0.00710759
0.00327054
0.00106024
0.0262425
0.0114957
0.00483494
0.00364915
0.00357798
0.00342927
0.0027711
0.00168337
0.00111064
0.00110459
0.00112728
0.00119764
0.00178224
0.00334789
0.00559231
0.00536751
0.00309741
0.00221293
0.00088991
0.0381002
0.0179987
0.0132167
0.00497298
0.00180509
0.00306284
0.00273892
0.00197827
0.00199371
0.00193698
0.00180329
0.00136425
0.000831247
0.000672243
0.000708876
0.000866822
0.00088271
0.000574181
0.000481147
0.000285903
0.0338994
0.015171
0.0193206
0.0184273
0.00265813
0.00545246
0.00531632
0.00342078
0.00401965
0.00489499
0.00494885
0.00280728
0.00125218
0.00073478
0.000482223
0.000356618
0.000261098
0.000209431
0.000162746
0.00010096
0.0344353
0.0119646
0.0180748
0.0219948
0.0123733
0.00150728
0.00129426
0.00205339
0.00348948
0.00573845
0.0095522
0.0056594
0.00207808
0.000995297
0.000560502
0.00036467
0.000284339
0.000226595
0.000162194
9.23684e-05
0.0105409
0.0169776
0.0208406
0.0155833
0.00405193
0.00148538
0.00297395
0.00445865
0.00659557
0.0131681
0.00865707
0.00292379
0.00134655
0.000719667
0.000428389
0.000305156
0.000279614
0.000193755
9.89454e-05
0.00558911
0.0146812
0.0175991
0.0127427
0.00309452
0.00147521
0.00762877
0.0120348
0.0139933
0.0169429
0.0110789
0.00378664
0.0016897
0.000877858
0.000494943
0.000313521
0.000262866
0.000221102
0.000181213
0.014048
0.0117561
0.0144383
0.00857427
0.00176116
0.00159453
0.0128613
0.0210718
0.0261162
0.0287095
0.0105277
0.00399291
0.00179055
0.000924233
0.00051499
0.000345763
0.000230053
0.00021052
0.00550966
0.0086551
0.00603988
0.00121143
0.00114754
0.0109074
0.0245513
0.0286087
0.0230586
0.00815124
0.00329836
0.00150911
0.000790668
0.000529412
0.000283419
0.00022273
0.000158655
0.00460562
0.0065646
0.00416526
0.00192761
0.0012864
0.00581839
0.017213
0.0217947
0.0107037
0.00419561
0.00184913
0.000921945
0.000600948
0.000342445
0.000272501
0.000241084
0.00461618
0.00442174
0.00263451
0.001624
0.0024188
0.00499616
0.00388108
0.00183909
0.000937366
0.000671046
0.000466708
0.000414112
0.000425239
0.000378853
0.00119946
0.000912641
0.000754728
0.000703013
0.000502689
0.000334367
0.00038954
0.000553644
0.000710457
0.000644654
0.000524535
0.00113826
0.000932555
0.000714259
0.000603653
0.000646166
0.000898367
0.00124555
0.00136225
0.0508129
0.0825885
0.081903
0.032059
0.112417
0.263018
0.286629
0.251204
0.176061
0.0963488
0.0202174
0.000189507
0.0851477
0.12316
0.13556
0.302086
0.247469
0.220367
0.155756
0.0842089
0.0622456
0.0128034
0.00287385
0.000780626
0.000178954
0.0634591
0.164941
0.162485
0.140974
0.139441
0.115883
0.0834554
0.0444156
0.0182445
0.0105524
0.0114099
0.0102573
0.00686043
0.00176979
0.000272473
0.104327
0.0676108
0.0582649
0.0301042
0.0269921
0.0255398
0.0223487
0.0176998
0.0142743
0.0138174
0.0143831
0.01536
0.0164518
0.0142625
0.0105306
0.0023093
0.0374335
0.0248609
0.00616466
0.00497549
0.00585262
0.007554
0.00991021
0.0126603
0.0154904
0.018257
0.0207864
0.0225359
0.023026
0.022883
0.0188323
0.00688583
0.00101741
0.0565406
0.0208326
0.00403525
0.00348117
0.00400702
0.00482669
0.00589739
0.00742486
0.00959977
0.0126229
0.0165634
0.0213787
0.0264246
0.0297688
0.0296145
0.0236593
0.0112941
0.00422841
0.000257901
0.0314791
0.0096942
0.00210944
0.00441946
0.00521822
0.00607213
0.00666178
0.00689418
0.00667166
0.0066582
0.00819049
0.0125129
0.0192199
0.0272656
0.0326211
0.0258863
0.0143206
0.00686459
0.00127642
0.0173158
0.00298528
0.00278509
0.00667893
0.00825074
0.00988072
0.0111702
0.011553
0.00985809
0.00650823
0.00367106
0.00404981
0.00715716
0.0132882
0.0221913
0.0209041
0.0106272
0.00701628
0.00250892
0.0385106
0.0119093
0.00236498
0.00531939
0.0131234
0.0197391
0.0247345
0.0266351
0.0264591
0.021574
0.0131641
0.00482403
0.00190637
0.00196047
0.00359625
0.0078386
0.00975204
0.00535019
0.00375939
0.00175747
0.0414742
0.00593004
0.00210039
0.00349249
0.019261
0.0384612
0.0524629
0.062241
0.0603915
0.0477694
0.0288892
0.00976301
0.00240744
0.00113654
0.00110825
0.00198406
0.00255697
0.00130023
0.000914136
0.000501874
0.0522584
0.00277672
0.00381472
0.00887923
0.00541389
0.0134564
0.0354725
0.0597705
0.0852787
0.0867737
0.0546825
0.0188436
0.00393436
0.0013696
0.000698117
0.00059416
0.000535727
0.000287534
0.000198194
0.000119855
0.00299012
0.00459852
0.0115009
0.00742506
0.00282699
0.0227917
0.0560831
0.0798123
0.0870619
0.0759801
0.0273304
0.00578094
0.00186557
0.000803094
0.000453508
0.000312902
0.000229105
0.00013939
9.76184e-05
0.00189373
0.00670161
0.0103776
0.00689788
0.00156566
0.0151029
0.0474802
0.0676769
0.0748202
0.07034
0.0241679
0.00687321
0.00228855
0.000948653
0.000481789
0.000298418
0.000216342
0.000133696
0.000106327
0.0146792
0.00677865
0.00912205
0.0049235
0.000920774
0.00943621
0.038457
0.0557857
0.0594866
0.0515175
0.0191425
0.00622498
0.00223724
0.000964578
0.000479784
0.00032615
0.000182931
0.00013507
0.00392679
0.00583503
0.0035392
0.000719104
0.00475678
0.026121
0.0432746
0.0454529
0.0330917
0.0126281
0.00443671
0.00176311
0.000844052
0.000529654
0.000275951
0.000188872
0.000175448
0.00240849
0.00339484
0.00179173
0.00067137
0.00239538
0.0149761
0.0273559
0.0294209
0.0150253
0.00570891
0.00229351
0.00113377
0.000737524
0.000410104
0.000281615
0.000217477
0.0019974
0.00159421
0.00106254
0.00136696
0.00664742
0.00823629
0.00538426
0.00242893
0.00125391
0.000886898
0.000650154
0.000537247
0.000399745
0.000285827
0.000723349
0.000644485
0.000614552
0.000726895
0.000509928
0.000437753
0.000532281
0.000693984
0.000796744
0.000649416
0.000443123
0.00190597
0.00145277
0.00106822
0.000879822
0.000903004
0.00111888
0.00138383
0.00143801
0.0171729
0.0173621
0.0379124
0.0384211
0.111324
0.271726
0.264491
0.22997
0.152118
0.0659611
0.00924312
0.000103816
0.0840071
0.207892
0.249742
0.34749
0.270846
0.213958
0.145773
0.0784795
0.0495218
0.00865271
0.00187799
0.000503314
0.000104296
0.086668
0.177418
0.176063
0.143969
0.134276
0.107064
0.0813982
0.0503211
0.0213836
0.00871824
0.00893591
0.00792376
0.00544533
0.00137803
0.000149896
0.144757
0.0650564
0.0585756
0.0362205
0.033469
0.0301702
0.0248518
0.0196511
0.0161967
0.0153465
0.01477
0.0144698
0.0150529
0.0136572
0.0107665
0.00163138
0.0116588
0.0157645
0.0081102
0.00844729
0.0096487
0.0111544
0.0126259
0.0142588
0.0164615
0.0194976
0.0225342
0.0243393
0.0237518
0.0229051
0.0202866
0.00557004
0.000662528
0.0620304
0.00753749
0.00657377
0.00719152
0.00827777
0.00936527
0.0105659
0.011874
0.0134752
0.0155693
0.0186819
0.0234221
0.0294949
0.0338907
0.0334257
0.0285515
0.0107179
0.00406665
0.000162554
0.0489082
0.00426613
0.0059117
0.0091419
0.0102612
0.011383
0.0118812
0.0119557
0.0118346
0.0123069
0.0145824
0.019061
0.0266306
0.0365217
0.0428528
0.0370231
0.0159622
0.00773018
0.000831492
0.0142252
0.00148651
0.00711227
0.0127749
0.0161132
0.0182101
0.0197102
0.018777
0.0153681
0.0108676
0.00856048
0.0102695
0.015845
0.025883
0.0380413
0.0379605
0.0166615
0.00900434
0.00188137
0.0540094
0.0045652
0.00158792
0.0109161
0.0231584
0.0364452
0.0473213
0.0493222
0.0441947
0.0339075
0.0190522
0.00769758
0.00418587
0.00590467
0.0111373
0.0200504
0.0264211
0.0123444
0.00721821
0.00173707
0.0550471
0.00156625
0.00217644
0.0123198
0.0306546
0.051624
0.0753081
0.095263
0.100308
0.0758433
0.0435683
0.0151471
0.00338971
0.00194652
0.00300814
0.00635463
0.0117313
0.00600328
0.00350492
0.000880315
0.0683042
0.00141669
0.0022936
0.00880163
0.0255444
0.0511271
0.0861221
0.117956
0.138603
0.126255
0.0756661
0.0290486
0.00563224
0.00166383
0.00103513
0.0015028
0.00310103
0.00149449
0.000803116
0.00022145
0.00256786
0.00127637
0.0045672
0.00545674
0.0157866
0.0719888
0.110981
0.135837
0.129954
0.093909
0.0404808
0.00868109
0.00232502
0.000959559
0.000542642
0.000586416
0.000368406
0.00014694
8.91422e-05
0.00230647
0.00263319
0.00525938
0.00385175
0.00434223
0.0473368
0.0873067
0.109288
0.103148
0.0782913
0.0359707
0.0103503
0.00304832
0.00116977
0.000475488
0.000223047
0.000178909
0.000115394
8.94629e-05
0.0154374
0.00323304
0.00510927
0.00276203
0.00191224
0.0275394
0.0630089
0.0810366
0.0752445
0.0564554
0.0262072
0.0088533
0.00307657
0.00126024
0.000483283
0.000245119
0.00016094
0.000121469
0.00153189
0.00338816
0.00197865
0.00103041
0.0132652
0.0400286
0.0550757
0.0519227
0.0371386
0.0165394
0.00608766
0.00244682
0.00112799
0.000530105
0.000218937
0.000157744
0.000133712
0.00223349
0.00161197
0.0009821
0.000633129
0.00613436
0.0220687
0.0322978
0.0317832
0.0176551
0.00734723
0.00303604
0.00148608
0.000933856
0.000434971
0.000197355
0.000124779
0.00157846
0.000604816
0.000489936
0.00246316
0.0101308
0.00955068
0.00596987
0.00290226
0.00151891
0.00104494
0.000699287
0.000590717
0.000433196
0.000195806
0.00076791
0.000610627
0.000598311
0.000660957
0.000485043
0.000479619
0.00057572
0.000726989
0.000834028
0.000711947
0.000480649
0.0021804
0.00157538
0.00115913
0.000962239
0.000961923
0.00114449
0.00140376
0.00147466
0.0171421
0.0105806
0.00651526
0.0646522
0.14202
0.198901
0.134262
0.0927112
0.0908062
0.0322406
0.00237787
3.33812e-05
0.0622334
0.225482
0.295673
0.315284
0.180128
0.104452
0.0797171
0.0509766
0.0301363
0.00391757
0.000746482
0.000214807
3.12885e-05
0.0757618
0.20927
0.196126
0.124352
0.10141
0.0803268
0.0618037
0.0432492
0.0189273
0.00578992
0.00503347
0.00405205
0.00294823
0.000812963
5.92988e-05
0.138494
0.0910334
0.0854296
0.0458252
0.0374237
0.0319098
0.0272099
0.0227965
0.0190731
0.0177345
0.0160968
0.0138554
0.0123064
0.00995832
0.00742736
0.000741459
0.00865228
0.0213234
0.0133383
0.0117966
0.0119498
0.0125489
0.0135417
0.015047
0.0173775
0.0209782
0.0249391
0.0272598
0.0245309
0.0199699
0.0159595
0.00447827
0.000306567
0.0695765
0.0054503
0.00732137
0.00697364
0.00796464
0.00903763
0.0101311
0.0111344
0.0119631
0.0130864
0.0158942
0.021857
0.0304015
0.0369486
0.0346509
0.026294
0.0110465
0.00200007
5.85814e-05
0.051753
0.00318333
0.00742825
0.00940565
0.0110154
0.0123247
0.0138927
0.014639
0.0140685
0.0123035
0.0117349
0.0157429
0.0254195
0.0390509
0.0476527
0.0404512
0.0181992
0.00384991
0.000205267
0.00750295
0.00432619
0.0111894
0.0179496
0.0238436
0.0282651
0.0294372
0.0294128
0.0259068
0.0178017
0.0102673
0.00934868
0.0161003
0.0295902
0.0455456
0.0468216
0.0215229
0.00589994
0.000491301
0.0674144
0.00220335
0.00688981
0.0186633
0.032513
0.046467
0.0600523
0.0707779
0.0716751
0.0598491
0.0377715
0.0153546
0.00572608
0.00734154
0.0152575
0.028906
0.0372681
0.0189975
0.00696429
0.000721409
0.0760555
0.001261
0.0100574
0.0249353
0.0447043
0.0674065
0.0933537
0.119447
0.133737
0.113696
0.0720875
0.029665
0.0066177
0.00297238
0.00511738
0.012131
0.0206392
0.0123156
0.00472159
0.000561081
0.0855301
0.00209222
0.00499388
0.0256301
0.0471027
0.0757668
0.1123
0.154979
0.184374
0.165832
0.106192
0.0480565
0.0108564
0.00268854
0.00171177
0.00336816
0.00729376
0.00510059
0.0015563
0.000196915
0.0040775
0.00097969
0.0158382
0.0283571
0.0608027
0.101621
0.146818
0.17482
0.158895
0.11133
0.0590991
0.0155204
0.00377898
0.00140413
0.000954025
0.00175433
0.00136831
0.000132039
6.06211e-05
0.0060008
0.000502709
0.00472098
0.00549029
0.0286525
0.068815
0.106059
0.126968
0.116996
0.087769
0.0477122
0.0161716
0.00480843
0.00174395
0.000691217
0.000327051
0.000210591
0.000102917
4.85919e-05
0.0135511
0.00107145
0.00301274
0.0021131
0.0106534
0.0377333
0.0663841
0.0823767
0.0769702
0.0592725
0.0322039
0.0123235
0.00442065
0.00179712
0.000709011
0.000191737
0.000102101
0.000128558
0.000829522
0.0017084
0.00124819
0.00378038
0.0177973
0.0365633
0.0486131
0.0474456
0.0360332
0.0188321
0.00764077
0.00315412
0.0014568
0.00073152
0.000205441
8.32651e-05
0.000272096
0.00266692
0.00069024
0.000543093
0.00156328
0.00819777
0.0191543
0.0269409
0.0275031
0.0169005
0.00780454
0.00337636
0.00165374
0.00104142
0.000488898
0.000216894
8.54985e-05
0.00151754
0.000393474
0.000492034
0.00285551
0.00862109
0.00776908
0.00488705
0.00253113
0.00138796
0.000983116
0.000661508
0.000564153
0.000451709
0.000232586
0.000636188
0.000511905
0.000520377
0.000523725
0.000416506
0.000437975
0.000532512
0.000676958
0.000788647
0.00071136
0.000520331
0.00185102
0.00137086
0.00103607
0.000872276
0.000877408
0.00105343
0.00131144
0.00141782
0.00612292
0.00171045
0.00209037
0.074989
0.135212
0.0913026
0.042448
0.0324259
0.0420195
0.0116146
0.000420181
7.97529e-06
0.0424617
0.214348
0.252989
0.180117
0.047586
0.0293762
0.0302153
0.021935
0.010033
0.000992496
0.000280896
7.54286e-05
1.46075e-05
0.0419898
0.224517
0.198284
0.083031
0.0520603
0.0383511
0.0292011
0.0227473
0.00834745
0.00257126
0.00253217
0.00167356
0.00134003
0.000404205
1.70872e-05
0.10789
0.142755
0.127518
0.0576704
0.0424052
0.035277
0.0302775
0.0256825
0.0217566
0.0205118
0.0185136
0.0141788
0.00980641
0.0061362
0.00401736
0.000312216
0.0216494
0.0635711
0.0311198
0.022573
0.019527
0.0183485
0.0183558
0.0190277
0.0204368
0.0234246
0.0281105
0.0320237
0.0281674
0.017928
0.0112619
0.00270042
8.88782e-05
0.0784374
0.0179442
0.0214015
0.0116649
0.0109257
0.0120925
0.0136174
0.0150138
0.0157184
0.0153209
0.0160827
0.0214859
0.0323279
0.0425028
0.0387868
0.0233716
0.00838785
0.000471279
1.72539e-05
0.0694061
0.0104768
0.0152622
0.0127908
0.014604
0.0170472
0.0190042
0.0208638
0.0209772
0.0169919
0.0127415
0.0140759
0.0248524
0.0425851
0.0549212
0.0450643
0.0184286
0.000650651
3.40952e-05
0.00998117
0.008776
0.0192387
0.0241665
0.0315755
0.0383925
0.0432839
0.043985
0.0407436
0.0287956
0.0152516
0.00926977
0.0156279
0.0326573
0.0527501
0.0546135
0.0262097
0.000659604
5.69522e-05
0.0743751
0.00151893
0.0161777
0.0308147
0.0429178
0.0578364
0.0742289
0.0892983
0.0955301
0.0833411
0.0558681
0.0261937
0.00820105
0.00777961
0.0184861
0.0374166
0.0462596
0.0278343
0.000544628
9.26479e-05
0.0940543
0.00158125
0.0267221
0.0430615
0.0618275
0.0874692
0.120801
0.156326
0.175338
0.1525
0.0989932
0.0457076
0.0118504
0.00396797
0.00722525
0.0192162
0.0309084
0.0220108
0.000342684
0.000103478
0.0996545
0.00085389
0.033103
0.049915
0.07247
0.105022
0.151363
0.206528
0.237452
0.204892
0.137085
0.0679431
0.0184058
0.00405626
0.00252404
0.0062513
0.0141874
0.0116926
0.000165629
5.73462e-05
0.000468633
0.0238475
0.0472731
0.0692247
0.102771
0.150275
0.201214
0.219756
0.189417
0.133037
0.0765245
0.0248086
0.00564024
0.00194773
0.00166264
0.00462195
0.0050659
8.7546e-05
2.35375e-05
0.0021521
0.0010522
0.0255647
0.0462811
0.0780795
0.114303
0.14747
0.1554
0.137168
0.101203
0.0590093
0.0224318
0.00686821
0.00237916
0.000941594
0.000956807
0.00187522
0.000165754
7.59634e-05
0.008741
0.000229547
0.0070496
0.0150107
0.0397097
0.0682207
0.0910093
0.0963967
0.0851972
0.0646616
0.0371698
0.0153819
0.00567539
0.00225888
0.000897401
0.000314053
0.000240169
0.000349957
0.000433349
0.00112951
0.00471353
0.0165022
0.033504
0.0487822
0.0543943
0.0498149
0.0369571
0.0201598
0.00863222
0.00359688
0.00164333
0.000842688
0.000275446
0.000116077
0.000540833
0.0014646
0.000353695
0.000873884
0.00676073
0.0162722
0.0257126
0.0296458
0.0267887
0.0164201
0.00785194
0.00344361
0.00167866
0.00105277
0.000476338
0.000254404
0.000112489
0.0010951
0.000336334
0.00111105
0.00531305
0.0114664
0.00820098
0.00475804
0.00245706
0.00132468
0.000920717
0.000596292
0.000504658
0.000425648
0.000252154
0.00055272
0.000480645
0.000507674
0.000446449
0.000348591
0.00037419
0.00045947
0.000586167
0.000684635
0.000642769
0.000508661
0.00170877
0.00121598
0.000892109
0.000738806
0.000744773
0.000901589
0.00112999
0.00123738
0.00309977
0.000978863
0.00149407
0.0473357
0.0739394
0.0503302
0.0180847
0.0202538
0.0131404
0.00232603
5.88503e-05
9.41097e-06
0.0330374
0.175319
0.164225
0.058163
0.0169052
0.0171897
0.020047
0.00749006
0.00225592
0.00022546
0.000102879
1.9488e-05
2.48673e-05
0.0245204
0.207602
0.161103
0.0369137
0.0206646
0.0174066
0.0166651
0.0129834
0.00328275
0.00132206
0.00114352
0.000636876
0.000591053
0.000175719
7.24301e-06
0.0649601
0.158425
0.138852
0.0553301
0.038001
0.0310138
0.0275008
0.0261298
0.0242178
0.0238274
0.0220542
0.0166176
0.00892858
0.00361653
0.00212501
0.000123809
0.0163835
0.109723
0.0515121
0.0347816
0.0287226
0.0260659
0.0246345
0.0240672
0.0243385
0.0261919
0.0308602
0.0373618
0.0364348
0.0203097
0.0080181
0.0013922
2.16784e-05
0.0807874
0.00976774
0.0515851
0.0296534
0.0218962
0.0198368
0.0193629
0.0194403
0.0192714
0.0181921
0.0175261
0.0209867
0.0322889
0.0487447
0.049473
0.0240235
0.00521559
0.000125857
1.10517e-05
0.0363183
0.0185313
0.0359431
0.0269989
0.0259893
0.02727
0.0280642
0.0273639
0.0254936
0.0210334
0.0151907
0.0134876
0.0220558
0.0436046
0.0658239
0.0580514
0.0166273
0.000285993
1.02648e-05
0.0034349
0.0261649
0.0347851
0.0371364
0.0437681
0.0513461
0.0566539
0.0565176
0.04937
0.0361054
0.0206512
0.0108232
0.0137382
0.0323654
0.0600731
0.0709276
0.0389276
0.000804787
8.61488e-06
0.0407875
0.00550061
0.0335749
0.0443706
0.0576615
0.0766511
0.0986512
0.117892
0.124036
0.107517
0.0705828
0.0358511
0.0125996
0.00800743
0.0197645
0.0445664
0.0605426
0.0430559
0.00134483
1.21496e-05
0.0471319
0.0151555
0.0412262
0.0569095
0.0805871
0.114673
0.158455
0.202422
0.221223
0.189627
0.125122
0.0611526
0.0192417
0.00554852
0.00908461
0.0266567
0.0446678
0.0366934
0.00176134
1.38148e-05
0.044778
0.0207842
0.0463658
0.0654151
0.0947659
0.138441
0.198801
0.262812
0.288131
0.244436
0.168252
0.0876823
0.0280872
0.00638163
0.00359956
0.010828
0.0253108
0.0238784
0.00121353
1.39458e-05
0.0155582
0.040097
0.06737
0.0959358
0.138823
0.203995
0.259917
0.272139
0.228213
0.164035
0.0957325
0.0351785
0.00865009
0.00253904
0.00295367
0.0105707
0.0134613
0.000586274
0.000100318
0.00101245
0.0254721
0.0606982
0.0902695
0.124045
0.166472
0.196796
0.198797
0.170904
0.12613
0.0736292
0.0291589
0.00921604
0.00301294
0.00111411
0.00203327
0.00722771
0.00295963
0.000465768
0.00338562
0.00688074
0.0394837
0.0638811
0.0915489
0.118081
0.131808
0.127262
0.109276
0.0794469
0.0442106
0.0182948
0.0067607
0.00261106
0.00100234
0.000360991
0.000666379
0.00247939
0.00073305
0.010568
0.0321258
0.0553192
0.0731175
0.0822102
0.0779459
0.0653389
0.0433701
0.0222473
0.00944437
0.00389329
0.00173511
0.000861095
0.000267713
0.000193816
0.000449536
0.000952311
0.000927222
0.00892342
0.0271565
0.0406385
0.0466037
0.0437337
0.0319654
0.0179916
0.00835492
0.00360659
0.00170597
0.00103118
0.000429939
0.000237768
0.000160382
0.000925087
0.000555825
0.00468899
0.0144281
0.0208621
0.0105824
0.0054264
0.00267768
0.00136696
0.000894199
0.000528314
0.000429387
0.00036402
0.000230556
0.000586879
0.000613566
0.000672186
0.000451487
0.000313942
0.000325116
0.000395762
0.000501955
0.000577196
0.000541584
0.000438835
0.00162196
0.00108919
0.000773332
0.000627516
0.000635113
0.000773545
0.000960295
0.00103125
0.000973674
0.000950748
0.000998105
0.0218065
0.0196502
0.0130039
0.00715145
0.00790111
0.00169122
0.000230329
5.9329e-05
4.78315e-05
0.0392517
0.114679
0.0802638
0.0192403
0.00673898
0.0101071
0.00985793
0.00194527
0.000455553
5.99592e-05
3.85659e-05
2.15084e-05
3.66061e-05
0.0222465
0.158401
0.0850415
0.0117972
0.0080117
0.00831519
0.0107926
0.00753747
0.00292161
0.00259826
0.0016499
0.000201801
0.000227857
6.61213e-05
2.1647e-05
0.0341204
0.133445
0.103463
0.0293931
0.0195058
0.0179962
0.0206848
0.0266048
0.0284108
0.0291561
0.0280712
0.0238031
0.0133372
0.0021214
0.00109643
3.57079e-05
0.0170783
0.0959297
0.0435161
0.0312506
0.028143
0.0287911
0.0308595
0.0311658
0.0296266
0.0296268
0.0332014
0.0416823
0.0494792
0.0349645
0.00585367
0.000554517
7.70888e-06
0.039825
0.0299486
0.0471782
0.0346956
0.0298624
0.0296301
0.0304668
0.0299062
0.0273331
0.0231779
0.0199811
0.0207335
0.0295555
0.0509361
0.0691154
0.0417574
0.00218827
3.13213e-05
9.63349e-05
0.00754179
0.0293318
0.0393966
0.0372421
0.039951
0.0440157
0.0461256
0.0436393
0.0367348
0.0272795
0.0183169
0.0136034
0.0172124
0.0372122
0.0745612
0.0868476
0.0149472
0.000145548
5.27084e-05
0.0056234
0.035026
0.0436226
0.0526567
0.0649429
0.0767987
0.0840797
0.0818067
0.0681608
0.0460281
0.0264059
0.013299
0.0105132
0.0244425
0.0607027
0.0967372
0.0698169
0.00281628
2.8369e-05
0.0145616
0.00710639
0.0415622
0.0576355
0.0788608
0.105375
0.134068
0.157677
0.162567
0.136335
0.087666
0.0450517
0.0181916
0.00763439
0.0146637
0.0446539
0.0808323
0.0798567
0.0072447
2.0239e-05
0.0174879
0.00984066
0.0480984
0.0723709
0.105102
0.149113
0.202972
0.252737
0.268239
0.226434
0.149384
0.075104
0.027584
0.00756444
0.00780364
0.0287612
0.0612996
0.0699175
0.0134431
2.6575e-05
0.0179949
0.00878208
0.0503521
0.0801582
0.119741
0.175815
0.249509
0.320679
0.339697
0.29114
0.202021
0.106306
0.0386701
0.00972001
0.00420982
0.0136411
0.0401705
0.0519258
0.0155283
6.39572e-05
0.0101521
0.0409307
0.0804717
0.119933
0.176404
0.255039
0.320933
0.333335
0.28606
0.206385
0.119278
0.0463904
0.0126023
0.00368344
0.00430074
0.0203039
0.0342469
0.0144407
0.000184417
0.00231235
0.0339491
0.0757654
0.113598
0.16053
0.213542
0.251369
0.260638
0.227598
0.167061
0.0959586
0.0385592
0.0124224
0.00409736
0.00145519
0.00494336
0.0170283
0.0173593