/*--------------------------------*- C++ -*----------------------------------*\
| =========                 |                                                 |
| \\      /  F ield         | OpenFOAM: The Open Source CFD Toolbox           |
|  \\    /   O peration     | Version:  2406                                  |
|   \\  /    A nd           | Website:  www.openfoam.com                      |
|    \\/     M anipulation  |                                                 |
\*---------------------------------------------------------------------------*/
FoamFile
{
    version     2.0;
    format      ascii;
    arch        "LSB;label=32;scalar=64";
    class       volScalarField;
    location    "100";
    object      p;
}
// * * * * * * * * * * * * * * * * * * * * * * * * * * * * * * * * * * * * * //

dimensions      [0 2 -2 0 0 0 0];

internalField   nonuniform List<scalar> 
238188
(
226.189
315.802
415.724
561.985
241.913
321.677
416.056
559.254
775.194
217.755
306.194
407.89
571.727
805.707
180.645
264.963
407.342
616.865
854.126
261.037
253.287
218.92
188.891
197.057
235.313
304.867
188.478
186.501
191.398
210.966
282.367
187.415
186.845
186.285
190.35
188.877
185.263
204.775
205.149
205.141
205.039
202.459
203.388
204.148
205.208
205.086
204.982
204.995
205.035
204.969
198.809
200.873
201.323
202.28
205.536
205.723
205.061
204.899
204.918
204.984
205.122
205.317
203.843
201.111
201.259
202.185
203
202.521
205.529
205.305
204.948
204.905
204.948
204.952
205.066
205.313
205.645
207.21
163.367
212.331
210.43
203.068
204.392
201.728
203.273
204.452
204.799
205.022
205.127
205.116
205.138
205.283
205.68
126.744
219.965
207.051
195.817
200.796
203.869
196.695
200.405
203.584
204.503
205.013
205.26
205.379
205.393
205.429
205.626
206.25
293.85
124.716
208.81
195.409
193.589
197.207
200.379
199.482
201.394
202.469
203.372
204.032
204.591
205.013
205.281
205.437
205.59
206.147
206.859
216.045
152.353
203.238
197.888
195.829
197.393
199.899
200.685
200.893
201.122
201.522
202.02
202.635
203.323
204.002
204.594
205.12
205.852
207.102
196.468
164.534
202.958
197.97
199.71
200.484
200.692
200.728
200.803
200.938
201.067
201.189
201.396
201.76
202.315
203.061
203.992
205.154
206.773
246.579
198.113
177.412
206.826
203.176
200.965
200.854
200.752
200.887
201.21
201.563
201.833
202.015
202.082
202.07
202.067
202.179
202.704
203.964
205.991
238.764
205.014
192.206
210.267
209.457
201.585
200.406
200.399
200.595
201.012
201.646
202.22
202.716
203.123
203.292
203.04
202.44
201.903
202.555
204.81
226.646
212.134
203.02
204.676
202.548
189.587
198.869
199.77
200.008
200.195
200.696
201.73
202.7
203.556
204.209
204.387
204.016
202.987
202.352
204.075
209.84
200.14
197.207
201.155
198.637
202.646
197.792
198.786
199.847
199.75
200.327
201.928
203.22
204.227
204.972
205.218
204.879
204.023
204.535
204.433
194.301
194.495
199.632
200.913
198.972
197.206
198.214
198.975
200.026
199.62
200.863
202.717
204.001
204.9
205.504
205.657
205.403
205.452
213.094
202.611
199.21
200.074
199.551
199.208
198.065
198.372
197.455
199.976
199.885
200.286
202.31
203.904
204.859
205.491
205.804
205.774
208.099
203.488
202.254
201.262
200.976
199.87
198.121
197.222
199.45
200.125
200.161
202.105
203.894
204.937
205.506
205.767
205.861
209.171
207.303
206.158
204.148
201.445
199.76
198.672
198.515
200
200.198
200.539
202.541
204.3
205.242
205.666
205.834
214.386
209.578
205.806
201.635
199.951
199.997
200.521
201.003
200.902
201.95
203.863
205.073
205.604
205.803
209.599
205.212
203.232
202.739
202.855
202.901
203.318
204.406
205.287
205.725
205.865
212.442
207.733
206.109
205.791
205.607
205.714
206.043
206.229
204.608
204.819
204.892
203.557
205.264
203.654
204.487
204.743
204.767
204.796
204.9
204.956
203.436
197.661
202.117
202.738
202.999
204.554
204.66
204.573
204.589
204.694
204.873
205.021
205.177
200.872
200.926
200.648
202.868
202.99
203.571
204.351
204.489
204.445
204.427
204.462
204.601
204.806
205.161
205.457
332.243
209.968
202.716
202.771
203.45
203.862
203.483
203.971
204.311
204.418
204.475
204.522
204.563
204.688
205.019
205.423
270.833
208.574
202.805
202.825
203.362
203.367
202.83
203.182
203.825
204.168
204.368
204.522
204.638
204.763
205.004
205.378
205.884
334.728
220.161
205.406
202.551
202.296
201.562
203.045
201.813
201.802
202.376
202.966
203.505
203.96
204.311
204.587
204.878
205.301
205.821
206.409
266.436
201.874
201.968
201.37
201.352
201.084
201.532
200.47
200.283
200.444
200.885
201.519
202.248
202.919
203.499
204.084
204.76
205.465
206.254
212.813
190.71
198.757
200.988
201.113
200.91
200.795
200.672
200.53
200.416
200.445
200.642
201.008
201.426
201.903
202.577
203.525
204.519
205.683
231.688
199.337
187.318
197.116
201.305
201.139
200.958
200.919
201.08
201.363
201.391
201.497
201.663
201.812
201.823
201.698
201.644
202.095
203.026
204.512
218.138
195.958
183.593
200.842
203.151
200.732
200.332
200.077
200.056
200.716
201.351
201.813
202.365
202.989
203.201
202.901
202.087
201.246
201.371
203.01
213.211
200.389
187.459
196.059
201.774
196.95
199.442
199.297
198.992
199.08
200.627
201.366
202.178
203.246
204.056
204.342
203.781
202.236
200.722
201.912
201.69
191.161
194.236
198.609
199.059
200.348
197.694
197.208
197.621
199.154
200.735
201.899
202.903
203.997
204.811
205.013
204.377
202.515
202.324
201.058
194.533
191.54
194.605
200.813
199.652
198.041
197.362
196.931
198.476
200.101
201.403
202.545
203.628
204.647
205.233
205.356
205.009
204.642
197.376
200.92
197.752
198.969
201.327
200.454
199.65
197.864
197.006
198.221
199.946
201.064
202.269
203.38
204.433
205.278
205.676
205.782
206.931
203.623
202.512
201.213
200.675
200.251
197.87
196.173
197.961
199.933
200.932
202.201
203.374
204.582
205.388
205.738
205.933
208.675
205.355
204.948
202.413
200.783
199.974
198.855
197.971
198.986
200.105
201.116
202.554
203.979
205.238
205.609
205.769
210.302
210.547
206.014
202.008
200.546
200.094
199.756
200.227
200.936
202.333
203.874
205.167
205.74
205.753
210.222
205.724
202.587
202.172
202.198
202.848
203.907
205.114
205.481
205.634
205.779
210.238
207.304
206.275
205.95
205.751
205.681
205.895
206.175
204.446
204.463
204.542
202.982
205.387
204.296
204.22
204.245
204.296
204.388
204.621
204.735
207.211
198.21
202.486
203.694
203.689
203.74
203.78
203.816
204.036
204.168
204.391
204.728
204.942
205.849
204.051
202.681
203.315
203.498
203.691
203.783
203.835
203.864
203.89
203.952
204.105
204.292
204.749
205.216
227.144
205.046
204.363
203.631
203.475
203.514
203.632
203.801
203.931
204.017
204.052
204.065
204.075
204.189
204.396
204.935
209.882
204.31
203.83
203.294
203.048
203.173
203.147
203.393
203.702
203.979
204.169
204.231
204.202
204.206
204.312
204.722
205.53
251.977
205.184
203.928
203.288
202.865
202.58
202.466
202.39
202.613
202.993
203.441
203.872
204.156
204.249
204.231
204.267
204.672
205.442
206.439
236.387
204.57
203.153
202.552
202.305
201.935
201.736
201.686
201.876
202.183
202.637
203.212
203.731
204.026
204.108
204.152
204.543
205.381
206.535
206.601
202.119
202.047
201.924
201.77
201.514
201.362
201.372
201.555
201.815
202.203
202.788
203.374
203.737
203.871
203.918
204.185
204.969
206.276
225.963
203.545
202.636
201.638
201.698
201.429
201.167
200.998
200.991
201.182
201.583
202.061
202.746
203.406
203.763
203.815
203.689
203.597
203.955
205.361
212.98
202.962
201.215
202.004
200.92
201.07
200.883
200.794
200.908
201.04
201.165
201.65
202.643
203.593
204.083
204.118
203.768
203.206
202.928
204.146
206.884
202.385
197.601
199.44
199.72
200.62
200.655
200.427
200.631
201.021
201.028
201.115
202.046
203.413
204.335
204.547
204.272
203.55
202.618
202.841
201.541
195.32
196.114
198.99
200.619
200.472
199.136
199.026
200.175
200.793
200.985
201.558
202.876
204.247
204.676
204.482
204.359
203.108
202.487
201.125
197.765
196.736
199.184
200.639
200.419
198.934
197.701
198.536
199.955
200.684
201.286
202.459
203.884
204.505
204.567
204.962
204.447
203.622
199.369
203.51
199.739
200.797
200.797
200.691
199.6
197.725
197.464
198.899
200.079
200.95
202.2
203.448
204.009
204.826
205.339
205.849
208.605
203.972
202.271
201.069
200.538
199.77
198.147
197.601
198.58
199.665
200.809
202.086
203.02
203.813
204.719
205.924
206.265
211.21
205.329
203.521
202.018
200.878
199.999
199.015
198.406
198.736
199.762
201.184
202.289
202.494
203.906
205.216
206.156
208.404
204.824
203.173
201.582
200.493
199.868
199.458
199.936
201.422
201.467
203.017
203.861
204.715
205.415
207.79
205.012
202.185
201.739
201.754
202.663
203.917
204.724
205.127
205.081
205.361
209.576
206.988
206.098
205.707
205.628
205.585
205.784
206.008
204.183
204.125
204.224
203.3
204.629
204.01
203.827
203.869
203.959
204.043
204.291
204.432
206.782
202.276
203.01
203.54
203.323
203.378
203.448
203.511
203.663
203.824
204.01
204.344
204.529
204.701
204.548
203.409
203.262
203.309
203.385
203.431
203.483
203.514
203.563
203.652
203.808
203.94
204.266
204.693
205.727
204.609
204.269
203.53
203.352
203.331
203.393
203.486
203.595
203.681
203.73
203.752
203.764
203.883
204.059
204.399
204.528
204.26
203.663
203.346
203.139
203.102
203.148
203.275
203.455
203.661
203.835
203.915
203.889
203.872
203.939
204.182
204.798
209.919
203.62
203.592
203.22
202.938
202.689
202.6
202.651
202.84
203.107
203.424
203.746
203.979
204.041
203.953
203.884
204.111
204.586
205.712
203.822
202.665
203.08
202.711
202.436
202.112
201.95
201.941
202.139
202.496
202.977
203.502
203.928
204.143
204.095
203.902
204.087
204.659
205.974
201.308
202.464
202.441
202.245
201.946
201.624
201.41
201.345
201.458
201.734
202.293
203.09
203.775
204.153
204.221
204.014
203.943
204.717
206.177
206.397
201.66
202.296
202.09
201.875
201.579
201.252
200.994
200.894
200.943
201.076
201.536
202.573
203.555
204.095
204.26
204.1
203.836
204.476
206.09
204.666
201.975
201.974
201.903
201.43
201.43
201.113
200.836
200.692
200.7
200.634
200.807
201.959
203.288
203.991
204.174
204.045
203.713
204.117
205.836
202.823
201.782
200.847
201.291
201.139
201.366
200.997
200.56
200.412
200.545
200.504
200.405
201.321
202.894
203.857
204.088
203.974
203.755
203.901
205.62
200.714
199.331
199.807
200.398
201.06
200.491
199.631
199.449
199.895
200.135
200.239
200.872
202.445
203.617
203.857
203.643
203.642
204.279
205.822
200.878
199.343
200.19
200.582
200.934
200.275
199.201
198.42
198.738
199.32
199.806
200.567
202.14
203.299
203.472
203.298
203.613
204.867
206.305
201.185
204.283
202.4
201.815
201.029
200.348
199.355
198.076
197.822
198.437
199.252
200.452
202.092
203.013
202.979
202.83
203.991
205.217
208.659
205.625
203.117
201.401
200.545
199.693
198.459
197.938
198.361
199.264
200.854
202.426
202.999
202.563
202.989
204.615
205.888
211.295
206.943
203.962
202.056
200.98
200.245
199.343
198.75
198.94
200.048
201.883
203.237
203.014
203.008
203.681
205.059
206.982
203.53
202.566
201.351
200.697
200.231
199.859
200.395
202.068
202.78
203.941
204.226
204.341
204.52
205.12
203.738
202.223
201.916
201.967
203.015
204.26
204.845
205.286
205.204
205.19
208.86
206.593
206.041
205.698
205.6
205.627
205.828
205.982
203.765
203.951
204.213
196.825
204.242
203.448
203.343
203.601
203.862
203.999
204.176
204.287
206.435
204.553
202.991
203.268
202.929
203.145
203.339
203.467
203.527
203.689
203.874
204.147
204.286
203.947
204.714
203.831
203.239
203.105
203.096
203.21
203.36
203.452
203.519
203.572
203.628
203.762
204.038
204.344
205.414
204.518
204.203
203.456
203.192
203.052
203.082
203.23
203.416
203.549
203.626
203.624
203.598
203.666
203.807
204.062
204.987
204.202
203.578
203.223
202.944
202.772
202.731
202.833
203.05
203.318
203.56
203.683
203.664
203.595
203.633
203.869
204.346
205.253
204.455
203.519
203.188
202.859
202.589
202.404
202.33
202.384
202.557
202.873
203.283
203.624
203.762
203.65
203.502
203.712
204.073
204.92
203.59
203.579
203.047
202.722
202.374
202.055
201.865
201.841
201.94
202.126
202.473
202.962
203.482
203.819
203.804
203.506
203.565
204
205.006
203.188
202.694
202.518
202.238
201.899
201.52
201.223
201.119
201.249
201.559
202.046
202.693
203.352
203.838
203.984
203.674
203.36
203.815
204.935
206.298
202.359
202.325
202.096
201.848
201.555
201.168
200.804
200.577
200.563
200.776
201.372
202.361
203.247
203.837
204.085
203.867
203.369
203.577
204.83
203.489
201.852
202.012
201.845
201.616
201.403
200.986
200.549
200.242
200.131
200.112
200.507
201.79
203.102
203.826
204.065
203.923
203.379
203.362
204.875
199.938
200.852
201.732
201.781
201.625
201.409
200.825
200.222
199.833
199.747
199.704
199.83
201.059
202.773
203.776
204.023
203.879
203.394
203.246
205.045
200.531
201.052
201.58
201.444
201.054
200.257
199.499
199.028
199.047
199.22
199.476
200.506
202.398
203.635
203.908
203.71
203.341
203.606
205.382
200.742
200.966
201.539
201.241
200.728
199.879
199.01
198.275
198.242
198.627
199.191
200.273
202.207
203.498
203.753
203.51
203.214
204.072
205.768
201.642
203.873
202.815
201.817
200.79
199.959
199.111
198.159
197.858
198.227
199.056
200.45
202.361
203.527
203.755
203.352
203.409
204.303
206.781
205.113
202.953
201.301
200.455
199.695
198.83
198.424
198.709
199.558
201.16
202.928
203.878
203.844
203.554
203.919
204.635
208.708
206.325
203.658
201.914
201.098
200.541
199.931
199.492
199.631
200.596
202.346
203.834
204.171
204.303
204.323
204.473
204.978
203.604
202.41
201.38
200.939
200.765
200.538
201.067
202.508
203.406
204.394
204.779
204.998
204.943
204.549
203.453
202.457
202.344
202.497
203.41
204.414
204.915
205.328
205.333
205.317
208.158
206.256
205.914
205.643
205.578
205.624
205.794
205.911
202.867
202.83
204.217
199.349
202.989
202.363
202.394
203.437
204.083
204.311
204.391
204.419
206.319
204.982
202.968
202.728
202.527
203.101
203.565
203.824
203.869
203.994
204.099
204.252
204.321
204.725
204.857
204.042
203.141
202.809
202.874
203.273
203.625
203.8
203.852
203.822
203.788
203.887
204.114
204.282
204.566
204.536
204.308
203.584
203.181
202.972
203.065
203.35
203.639
203.814
203.873
203.784
203.648
203.63
203.695
203.974
204.641
204.033
203.73
203.347
202.999
202.801
202.799
202.951
203.19
203.424
203.622
203.704
203.627
203.427
203.375
203.605
204.092
204.322
203.998
203.627
203.325
202.947
202.6
202.367
202.293
202.354
202.521
202.791
203.136
203.429
203.567
203.397
203.135
203.307
203.723
204.303
204.72
203.415
203.14
202.826
202.413
202.006
201.725
201.649
201.745
201.941
202.269
202.721
203.179
203.506
203.493
203.114
203.037
203.327
204.141
201.844
202.908
202.713
202.371
201.926
201.441
201.041
200.857
200.941
201.215
201.698
202.404
203.078
203.545
203.694
203.312
202.764
202.959
203.862
199.161
201.78
202.676
202.437
202.075
201.616
201.064
200.544
200.234
200.186
200.379
200.896
201.918
202.957
203.603
203.87
203.59
202.885
202.768
203.657
198.778
201.677
202.504
202.214
201.848
201.387
200.782
200.174
199.772
199.664
199.742
200.078
201.263
202.774
203.669
203.959
203.788
203.096
202.728
203.585
199.312
201.507
202.439
202.087
201.756
201.254
200.49
199.728
199.234
199.15
199.315
199.542
200.63
202.449
203.644
203.962
203.859
203.316
202.846
203.639
201.898
202.255
202.07
201.716
201.043
200.098
199.179
198.578
198.524
198.868
199.265
200.275
202.176
203.586
203.979
203.939
203.548
203.258
203.889
202.164
202.387
202.036
201.6
200.829
199.893
198.929
198.178
198.075
198.495
199.141
200.24
202.137
203.574
204.052
204.071
203.789
203.798
204.315
202.749
203.405
202.601
201.803
200.904
200.068
199.21
198.394
198.129
198.481
199.321
200.627
202.457
203.742
204.258
204.138
204.108
204.124
204.656
203.685
202.515
201.441
200.669
199.962
199.296
199.023
199.312
200.101
201.49
203.111
204.15
204.379
204.481
204.547
204.608
205.544
204.401
203.225
202.009
201.385
200.896
200.435
200.149
200.304
201.155
202.671
203.988
204.45
204.706
204.892
204.888
204.104
203.605
202.587
201.696
201.328
201.239
201.144
201.666
202.873
203.652
204.561
204.889
205.094
205.104
204.576
203.555
202.756
202.74
202.934
203.696
204.512
204.953
205.319
205.334
205.325
207.426
205.947
205.72
205.537
205.498
205.546
205.697
205.799
200.802
203.083
204.503
203.153
200.531
198.965
200.716
203.83
204.571
204.709
204.707
204.688
205.611
204.415
202.601
201.647
201.519
203.098
204.023
204.364
204.426
204.476
204.492
204.539
204.561
205.861
204.693
203.941
202.561
202.177
202.606
203.47
204.017
204.255
204.301
204.247
204.182
204.239
204.379
204.465
202.882
204.854
204.399
203.54
202.903
202.731
203.089
203.625
204.016
204.224
204.278
204.163
203.977
203.87
203.949
204.178
202.518
204.407
203.942
203.385
202.956
202.854
203.047
203.373
203.693
203.907
204.025
204.037
203.913
203.635
203.519
203.696
204.106
203.732
203.67
204.134
203.566
203.008
202.599
202.401
202.427
202.616
202.907
203.208
203.462
203.622
203.689
203.513
203.227
203.196
203.607
203.973
201.581
203.871
203.502
203.015
202.483
202.014
201.69
201.589
201.704
201.973
202.364
202.836
203.2
203.426
203.444
203.171
202.811
203.012
203.695
203.984
203.416
202.975
202.508
201.973
201.426
200.983
200.76
200.782
201.002
201.45
202.212
202.932
203.344
203.509
203.272
202.702
202.633
203.422
205.67
204.357
203.104
202.654
202.15
201.565
200.931
200.374
200.053
199.993
200.149
200.556
201.507
202.678
203.421
203.712
203.506
202.84
202.549
203.261
205.039
204.044
202.92
202.415
201.848
201.168
200.426
199.803
199.45
199.388
199.552
199.869
200.863
202.422
203.545
203.95
203.795
203.151
202.743
203.237
205.015
203.865
202.9
202.32
201.688
200.898
199.996
199.255
198.85
198.832
199.125
199.48
200.427
202.145
203.569
204.074
204.034
203.578
203.139
203.403
203.813
203.107
202.394
201.717
200.785
199.711
198.826
198.336
198.355
198.79
199.288
200.252
202.01
203.586
204.152
204.234
203.872
203.638
203.778
203.271
202.988
202.486
201.861
200.876
199.762
198.797
198.185
198.18
198.637
199.292
200.361
202.149
203.699
204.292
204.448
204.334
204.197
204.337
202.784
202.897
202.564
202.032
201.134
200.162
199.266
198.613
198.507
198.888
199.661
200.869
202.613
203.949
204.509
204.593
204.624
204.598
203.047
202.779
202.397
201.685
200.891
200.162
199.628
199.515
199.814
200.518
201.769
203.308
204.338
204.644
204.783
204.892
204.889
204.325
203.237
202.929
202.056
201.542
201.086
200.706
200.511
200.691
201.511
202.89
204.11
204.602
204.841
204.985
205.012
204.576
203.507
202.741
201.913
201.574
201.511
201.529
202.079
203.137
203.767
204.614
204.927
205.105
205.116
204.63
203.731
203.039
203.042
203.252
203.88
204.545
204.922
205.246
205.283
205.284
206.857
205.685
205.506
205.385
205.362
205.408
205.547
205.647
202.761
204.492
205.003
201.77
198.727
198.174
202.633
204.782
204.991
204.993
204.956
204.928
204.824
203.43
201.258
198.669
201.294
203.685
204.577
204.808
204.834
204.855
204.855
204.841
204.833
205.365
204.291
203.379
201.389
201.487
202.637
203.802
204.395
204.642
204.722
204.717
204.677
204.695
204.729
204.743
206.283
205.025
204.327
203.015
202.298
202.451
203.169
203.826
204.267
204.538
204.676
204.66
204.534
204.397
204.443
204.549
205.252
205.007
203.895
203.138
202.651
202.703
203.088
203.521
203.912
204.216
204.418
204.494
204.431
204.214
204.126
204.219
204.407
208.677
205.647
204.256
203.556
202.898
202.463
202.333
202.458
202.739
203.114
203.51
203.843
204.037
204.095
204.028
203.888
203.746
203.983
204.213
206.426
205.048
203.48
202.959
202.398
201.944
201.679
201.63
201.771
202.079
202.542
203.086
203.493
203.658
203.749
203.743
203.396
203.558
204.007
203.745
203.055
202.769
202.345
201.815
201.308
200.934
200.755
200.773
200.984
201.432
202.205
202.995
203.372
203.553
203.636
203.517
203.401
203.829
207.36
203.78
202.677
202.291
201.812
201.191
200.586
200.136
199.922
199.907
200.047
200.411
201.292
202.538
203.321
203.62
203.703
203.573
203.333
203.693
205.956
203.495
202.521
202.002
201.395
200.611
199.876
199.385
199.187
199.212
199.4
199.72
200.598
202.144
203.408
203.882
203.934
203.753
203.399
203.633
204.586
203.55
202.464
201.925
201.194
200.257
199.373
198.796
198.584
198.663
198.988
199.4
200.276
201.888
203.476
204.131
204.234
204.071
203.678
203.696
203.48
203.112
202.059
201.257
200.21
199.202
198.521
198.248
198.344
198.762
199.29
200.234
201.875
203.564
204.303
204.514
204.284
204.113
203.99
203.157
203.072
202.331
201.525
200.449
199.417
198.679
198.32
198.381
198.793
199.427
200.48
202.141
203.747
204.438
204.672
204.636
204.677
204.834
201.203
202.729
202.841
201.935
200.947
200.013
199.287
198.875
198.879
199.234
199.93
201.071
202.697
204.045
204.625
204.759
204.795
204.843
202.145
202.847
202.572
201.67
200.887
200.249
199.879
199.851
200.114
200.773
201.97
203.421
204.423
204.739
204.87
204.948
204.951
204.62
202.825
202.798
201.991
201.464
201.035
200.729
200.602
200.867
201.741
203.057
204.181
204.653
204.881
204.997
205.018
205.134
203.487
202.895
201.982
201.59
201.61
201.765
202.385
203.344
203.857
204.637
204.918
205.076
205.094
204.741
203.903
203.265
203.242
203.475
203.997
204.541
204.87
205.155
205.205
205.218
206.428
205.469
205.307
205.223
205.207
205.253
205.382
205.481
203.833
204.908
205.188
200.138
197.67
201.397
204.707
205.214
205.171
205.135
205.101
205.078
204.166
201.834
198.61
196.484
202.701
204.552
204.971
205.043
205.061
205.067
205.065
205.045
205.033
205.036
203.595
202.13
200.158
201.397
203.271
204.326
204.723
204.905
205.018
205.051
205.02
205.015
204.997
204.981
205.507
204.549
203.914
202.251
201.856
202.557
203.516
204.105
204.479
204.744
204.945
205.053
205.059
204.936
204.903
204.903
205.69
204.56
203.431
202.629
202.298
202.621
203.149
203.596
203.98
204.322
204.617
204.82
204.902
204.845
204.797
204.799
204.784
205.376
204.799
203.795
203.164
202.524
202.186
202.219
202.458
202.784
203.168
203.595
204.024
204.351
204.52
204.614
204.649
204.574
204.619
204.67
203.606
203.93
203.115
202.628
202.086
201.712
201.589
201.666
201.872
202.189
202.648
203.236
203.771
204.025
204.195
204.386
204.377
204.463
204.532
201.633
202.376
202.352
201.989
201.457
201.014
200.779
200.75
200.872
201.117
201.548
202.276
203.136
203.599
203.804
204.078
204.319
204.374
204.439
199.398
200.668
202.025
201.796
201.366
200.699
200.125
199.807
199.768
199.9
200.111
200.473
201.285
202.513
203.36
203.682
203.934
204.232
204.305
204.37
199.383
200.98
201.891
201.441
200.841
199.987
199.28
198.933
198.915
199.084
199.34
199.683
200.52
202.005
203.305
203.832
204.021
204.243
204.303
204.348
200.608
201.781
201.608
201.251
200.541
199.564
198.757
198.362
198.33
198.511
198.854
199.294
200.175
201.739
203.354
204.095
204.283
204.402
204.427
204.418
201.422
201.94
201.32
200.585
199.555
198.682
198.231
198.136
198.276
198.635
199.185
200.17
201.783
203.505
204.347
204.598
204.599
204.609
204.614
201.118
202.078
201.653
200.9
199.893
199.017
198.522
198.349
198.418
198.757
199.411
200.506
202.138
203.758
204.522
204.787
204.831
204.776
204.697
202.129
202.218
202.304
201.415
200.55
199.77
199.238
198.986
199.014
199.336
200.032
201.177
202.757
204.096
204.696
204.845
204.916
204.937
201.678
202.652
202.164
201.311
200.643
200.158
199.912
199.912
200.187
200.888
202.103
203.505
204.471
204.797
204.91
204.976
204.993
205.612
202.817
202.552
201.764
201.198
200.818
200.615
200.576
200.97
201.923
203.199
204.237
204.681
204.895
204.991
205.014
205.529
203.79
202.964
201.94
201.506
201.762
202.034
202.686
203.54
203.949
204.65
204.9
205.039
205.061
204.826
204.019
203.467
203.464
203.686
204.098
204.531
204.818
205.065
205.123
205.146
206.044
205.262
205.123
205.065
205.06
205.106
205.227
205.323
204.588
205.026
205.225
200.72
200.382
204.089
205.352
205.29
205.221
205.177
205.148
205.134
202.273
199.122
196.161
197.601
204.069
204.964
205.109
205.127
205.117
205.112
205.118
205.125
205.13
204.436
202.168
199.5
199.341
202
203.839
204.617
204.883
205.003
205.095
205.139
205.095
205.116
205.13
205.117
203.528
203.986
203.232
201.564
201.684
202.785
203.745
204.278
204.587
204.804
204.994
205.147
205.237
205.184
205.133
205.104
203.306
203.961
202.899
202.193
202.15
202.673
203.24
203.68
204.033
204.354
204.661
204.919
205.086
205.143
205.128
205.105
205.035
200.908
203.705
203.57
202.828
202.163
201.953
202.132
202.479
202.868
203.268
203.683
204.118
204.51
204.773
204.937
205.036
205.064
205.038
204.915
200.853
203.191
203.067
202.429
201.797
201.441
201.412
201.623
201.955
202.353
202.825
203.398
203.976
204.355
204.581
204.778
204.945
205.022
204.904
200.663
202.811
202.475
201.866
201.17
200.664
200.48
200.599
200.91
201.308
201.797
202.497
203.336
203.919
204.207
204.478
204.756
204.912
204.881
203.935
200.478
202.664
201.973
201.205
200.33
199.651
199.37
199.483
199.838
200.254
200.725
201.511
202.652
203.562
203.979
204.25
204.596
204.82
204.859
203.613
201.276
202.225
201.446
200.527
199.49
198.7
198.396
198.527
198.901
199.347
199.812
200.659
202.053
203.345
203.963
204.197
204.501
204.745
204.854
203.44
201.17
201.484
200.996
200.067
198.977
198.164
197.855
197.951
198.266
198.704
199.236
200.177
201.71
203.291
204.111
204.332
204.535
204.721
204.841
200.991
201.236
200.881
200.013
198.948
198.152
197.824
197.825
198.009
198.381
199.007
200.09
201.72
203.429
204.336
204.586
204.644
204.757
204.808
199.512
201.494
201.155
200.322
199.314
198.554
198.202
198.09
198.136
198.467
199.211
200.427
202.105
203.727
204.536
204.791
204.84
204.87
204.832
203.789
201.826
201.756
200.884
200.051
199.357
198.928
198.723
198.744
199.106
199.909
201.165
202.78
204.108
204.721
204.872
204.939
204.975
202.652
202.197
201.56
200.632
200.082
199.745
199.606
199.671
200.046
200.869
202.169
203.56
204.492
204.822
204.925
204.985
205.008
205.875
203.062
202.148
201.374
200.747
200.444
200.366
200.447
200.98
202.028
203.296
204.281
204.688
204.898
204.981
205.005
205.471
203.927
202.81
201.798
201.347
201.879
202.231
202.905
203.691
204.002
204.659
204.884
205.006
205.031
204.727
204.011
203.583
203.599
203.802
204.146
204.509
204.77
204.987
205.053
205.083
205.636
205.031
204.926
204.902
204.918
204.976
205.094
205.187
204.958
205.17
205.227
205.735
202.91
205.319
205.376
205.273
205.219
205.176
205.149
205.143
200.069
197.106
196.766
201.253
204.771
205.098
205.133
205.122
205.11
205.104
205.114
205.127
205.143
202.961
199.677
196.504
199.676
202.888
204.216
204.706
204.871
204.953
205.03
205.088
205.086
205.108
205.14
205.15
203.7
204.014
202.132
200.907
201.75
203.01
203.812
204.248
204.508
204.7
204.874
205.027
205.138
205.143
205.145
205.148
203.802
204.108
202.419
201.894
202.121
202.658
203.17
203.589
203.955
204.29
204.602
204.862
205.031
205.107
205.151
205.175
205.149
203.816
204.395
203.564
202.576
201.894
201.765
201.962
202.345
202.792
203.254
203.714
204.175
204.59
204.88
205.022
205.088
205.153
205.153
205.109
202.477
203.796
203.247
202.348
201.59
201.188
201.152
201.429
201.874
202.398
202.958
203.566
204.164
204.611
204.857
204.962
205.048
205.149
205.105
202.464
203.824
202.864
201.882
200.976
200.338
200.115
200.309
200.784
201.382
202.023
202.776
203.603
204.253
204.612
204.8
204.938
205.08
205.083
205.787
202.767
203.387
202.309
201.179
200.061
199.206
198.861
199.048
199.612
200.3
200.989
201.854
202.951
203.879
204.38
204.616
204.802
204.974
205.049
204.505
201.838
202.431
201.549
200.371
199.107
198.145
197.772
197.982
198.584
199.308
200.006
200.968
202.326
203.572
204.251
204.499
204.677
204.853
204.977
203.76
201.491
201.625
200.939
199.793
198.523
197.597
197.249
197.41
197.895
198.524
199.252
200.349
201.902
203.415
204.262
204.505
204.635
204.779
204.892
201.689
201.391
200.713
199.644
198.466
197.628
197.284
197.309
197.564
198.038
198.837
200.115
201.818
203.48
204.39
204.634
204.67
204.773
204.853
201.235
201.599
200.736
199.846
198.815
198.067
197.699
197.548
197.575
197.974
198.912
200.357
202.156
203.755
204.555
204.782
204.804
204.846
204.882
204.652
201.893
201.226
200.175
199.411
198.755
198.328
198.087
198.096
198.564
199.602
201.112
202.839
204.143
204.732
204.875
204.91
204.94
203.424
201.561
200.632
199.764
199.321
199.068
198.979
199.107
199.65
200.724
202.222
203.642
204.524
204.833
204.93
204.976
204.997
205.569
203.184
201.591
200.996
200.295
200.021
200.01
200.221
200.937
202.125
203.407
204.347
204.695
204.902
204.975
204.998
205.064
203.78
202.567
201.684
201.242
201.995
202.39
203.083
203.831
204.053
204.678
204.877
204.982
205.008
204.473
203.919
203.627
203.662
203.849
204.162
204.49
204.737
204.929
205
205.034
205.219
204.786
204.726
204.74
204.788
204.867
204.988
205.079
205.166
205.209
205.2
203.617
204.325
205.43
205.295
205.226
205.175
205.131
205.114
205.11
199.228
197.685
199.477
203.854
204.939
205.077
205.051
205.032
205.056
205.055
205.069
205.086
205.096
202.306
197.247
195.304
200.858
203.42
204.273
204.601
204.711
204.797
204.885
204.968
205.026
205.06
205.089
205.114
204.574
203.874
200.629
200.305
201.848
202.954
203.654
204.044
204.315
204.548
204.758
204.931
205.043
205.07
205.089
205.109
205.125
204.207
201.904
201.593
202.013
202.472
202.978
203.424
203.842
204.219
204.569
204.853
205.032
205.106
205.116
205.124
205.136
204.747
205.009
203.371
202.275
201.671
201.615
201.807
202.225
202.724
203.243
203.752
204.248
204.685
204.985
205.114
205.131
205.136
205.142
205.14
204.123
204.575
203.181
202.162
201.399
201.008
200.97
201.29
201.819
202.445
203.094
203.755
204.374
204.839
205.069
205.108
205.103
205.135
205.133
204.324
203.841
202.781
201.728
200.777
200.079
199.808
200.034
200.634
201.416
202.225
203.073
203.92
204.586
204.945
205.033
205.043
205.088
205.109
205.334
203.123
203.113
202.168
201.032
199.825
198.827
198.357
198.548
199.283
200.254
201.211
202.236
203.349
204.26
204.768
204.93
204.954
205.01
205.052
203.824
202.033
202.25
201.434
200.234
198.826
197.654
197.109
197.321
198.13
199.184
200.205
201.384
202.766
203.944
204.605
204.83
204.86
204.918
204.976
203.49
202.103
201.623
200.853
199.652
198.225
197.099
196.591
196.751
197.412
198.32
199.355
200.708
202.329
203.743
204.528
204.765
204.795
204.848
204.915
201.836
201.498
200.573
199.458
198.167
197.174
196.691
196.684
197.028
197.697
198.792
200.362
202.177
203.733
204.551
204.763
204.778
204.824
204.884
202.634
201.313
200.343
199.501
198.463
197.616
197.096
196.832
196.851
197.421
198.705