/*--------------------------------*- C++ -*----------------------------------*\
| =========                 |                                                 |
| \\      /  F ield         | OpenFOAM: The Open Source CFD Toolbox           |
|  \\    /   O peration     | Version:  2406                                  |
|   \\  /    A nd           | Website:  www.openfoam.com                      |
|    \\/     M anipulation  |                                                 |
\*---------------------------------------------------------------------------*/
FoamFile
{
    version     2.0;
    format      ascii;
    arch        "LSB;label=32;scalar=64";
    class       volScalarField;
    location    "150";
    object      epsilon;
}
// * * * * * * * * * * * * * * * * * * * * * * * * * * * * * * * * * * * * * //

dimensions      [0 2 -3 0 0 0 0];

internalField   nonuniform List<scalar> 
238188
(
0.13268
0.43337
0.550556
0.118114
0.33943
0.430325
0.515546
0.96786
0.0578835
0.401176
0.475506
0.560824
0.938242
1.40911
0.10119
0.485577
0.860196
1.3522
0.199126
1.95315
4.13829
4.88712
0.982406
0.870492
1.50453
1.79863
1.99993
0.934924
1.55241
1.13244
1.52892
7.98241
1.26868
0.693607
1.79357
5.09216
1.87304
0.0667012
0.00474154
0.0104017
0.174368
0.0876971
0.137272
0.160557
0.0131355
0.00632153
0.00639683
0.00456027
0.00785809
2.32484
0.314868
0.216253
0.164057
0.244623
0.24645
0.220228
0.0104732
0.0090927
0.0062612
0.00335423
0.00294582
0.00537514
13.5204
0.788838
1.61043
4.65182
0.772274
0.212692
0.277912
0.162138
0.0103858
0.00840294
0.00632365
0.00405593
0.00234193
0.00229926
0.00484582
98.8504
16.7469
127.546
42.4934
9.96409
11.9795
21.1921
0.0806424
0.0194608
0.00997325
0.00971643
0.00758142
0.00537392
0.00328528
0.00187646
0.00236071
54.9514
113.306
17.3232
2.15445
2.68069
4.13095
4.94025
0.186299
0.0110919
0.0105505
0.0105918
0.00762864
0.00500751
0.00332871
0.00222445
0.0019277
0.00405928
26.4968
82.4096
63.3619
3.78772
2.72841
2.23474
3.10159
5.71227
0.0968292
0.013147
0.0124511
0.0128601
0.00788456
0.00437851
0.00355573
0.00354438
0.00329693
0.00352607
0.0177126
14.859
59.9803
48.0055
11.1947
8.8828
2.73948
3.36209
0.696378
0.0314045
0.01481
0.0153583
0.016946
0.00813489
0.00583148
0.00746031
0.00915166
0.00936517
0.0064122
0.0118813
11.5358
33.4763
39.7366
17.0338
3.06568
1.86476
0.221996
0.0412432
0.0238515
0.0164025
0.0187109
0.0203547
0.00849377
0.00727872
0.010967
0.0176121
0.0216602
0.0162594
0.0117587
10.4125
9.78917
17.7022
30.0888
9.19373
0.118381
0.0464302
0.0357926
0.0258184
0.0210557
0.0191566
0.0189936
0.0208318
0.00690446
0.00486783
0.00958061
0.0207759
0.0294808
0.0245741
0.0130776
7.8286
8.38891
10.8505
23.8308
5.60409
0.0317487
0.0230883
0.0258494
0.0260228
0.0193168
0.0158155
0.025139
0.0129824
0.00722222
0.0163779
0.0285869
0.02862
0.0419854
0.0302175
0.0213417
13.5181
9.39408
7.83031
20.611
5.25168
0.0235694
0.0307552
0.0348621
0.0220986
0.0187012
0.0204664
0.0153958
0.00965731
0.0204553
0.023238
0.0152973
0.0104836
0.0109863
0.0355638
0.0226454
14.3335
6.72958
17.1308
8.11103
0.0254478
0.0152619
0.0127083
0.00873199
0.00728803
0.0100922
0.0437245
0.137495
0.0776796
0.070084
0.0386264
0.0157487
0.00640267
0.00387883
0.00764358
14.7797
7.24568
12.0628
13.4235
0.0200628
0.0200127
0.0419823
0.0766844
0.109666
0.112719
0.0961546
0.100067
0.126973
0.158942
0.0923466
0.024496
0.00879818
0.00445732
0.0184969
14.2901
11.1569
7.45782
17.2498
0.2875
0.0970018
0.103331
0.115672
0.114341
0.109297
0.105257
0.100342
0.11958
0.189747
0.208713
0.0440742
0.0142178
0.00964883
14.212
6.90038
12.7947
9.48999
1.79311
0.148467
0.123745
0.115225
0.123091
0.141495
0.132613
0.115762
0.159907
0.285502
0.0644661
0.0240775
0.0292647
21.6617
12.4981
8.53518
7.10267
5.11025
4.13806
0.643204
0.28038
0.255599
0.25976
0.200097
0.103063
0.128938
0.240284
0.0752738
0.0472788
17.9244
8.22597
5.31777
3.38917
2.58001
1.66189
1.31014
1.0907
0.523328
0.164175
0.0656336
0.171124
0.189844
0.12394
5.96054
3.22433
1.94357
1.20722
0.83792
0.571706
0.265512
0.121628
0.180498
0.296108
0.36681
4.56045
1.76097
0.92914
0.552284
0.461066
0.324619
0.267227
0.566212
0.0118968
0.00380367
0.00496157
0.349765
0.25402
0.0918493
0.0948894
0.0185693
0.00507214
0.00423137
0.00374526
0.00409854
2.09431
0.182196
0.174387
0.133033
0.0985773
0.143276
0.0627468
0.00758296
0.00571392
0.00498524
0.00446348
0.00355986
0.00341444
3.33124
0.465806
0.157937
0.102464
0.109521
0.100184
0.114125
0.0391815
0.010411
0.00800063
0.0074688
0.0070079
0.00640689
0.00428418
0.00266247
50.0128
14.3307
10.9218
5.76304
2.35585
0.173943
0.0562457
0.0420458
0.0163129
0.0113304
0.00985307
0.00934084
0.00931296
0.00898986
0.00710652
0.0040905
7.9576
5.44731
2.68002
1.95607
0.464493
0.0579568
0.0424155
0.0180367
0.0150036
0.0126822
0.0108702
0.0101314
0.0100136
0.00973086
0.00881914
0.00656757
0.00297264
11.614
4.91834
2.62745
2.27602
2.48554
1.58295
0.368973
0.0375243
0.0203958
0.0184845
0.0136101
0.0100209
0.00858247
0.00885831
0.00970019
0.00968195
0.00864266
0.00590504
0.00228546
4.79753
5.64038
3.07416
2.37871
2.11932
0.507528
0.0710319
0.0237797
0.0245792
0.0199075
0.0120923
0.00857574
0.00897425
0.0121161
0.0152962
0.0153317
0.0118023
0.00876448
0.00415302
4.33843
6.64118
4.51193
1.54254
0.396018
0.0570951
0.0250711
0.024033
0.0244681
0.0177435
0.0110085
0.00859081
0.00903488
0.00957539
0.0149226
0.0213019
0.0174811
0.0113182
0.00845658
7.18321
3.59515
6.76148
6.96583
0.470246
0.0518158
0.024201
0.0218768
0.0228498
0.0211814
0.0160859
0.012087
0.00880931
0.00771489
0.00925762
0.0139185
0.0175564
0.0193441
0.0131756
0.0104329
8.83838
2.82983
5.69632
7.4186
0.198462
0.0253308
0.0201848
0.0205747
0.020338
0.019125
0.020321
0.0143765
0.0124142
0.0128275
0.0243161
0.0276107
0.0220183
0.0183183
0.0132797
0.0124247
14.886
2.42712
4.79467
6.95648
0.17954
0.0195687
0.0182269
0.018777
0.022092
0.0193643
0.0125709
0.00987361
0.0203427
0.0514457
0.0650314
0.0750584
0.0434934
0.0227328
0.0145431
0.0127135
2.32091
3.93267
6.28937
0.315733
0.0166705
0.0164137
0.0227684
0.0156129
0.0116821
0.0167446
0.046166
0.112584
0.0932151
0.106195
0.134737
0.0883301
0.0321483
0.0166391
0.01571
2.8866
3.14556
5.46426
0.868668
0.0185273
0.0269075
0.0237989
0.0280981
0.0481969
0.0804986
0.105114
0.0698723
0.0616194
0.0716169
0.0959639
0.101654
0.0376826
0.0182836
0.0399132
9.98887
2.58541
4.30368
1.84944
0.0312343
0.0316582
0.027823
0.0438675
0.0622442
0.0728442
0.057394
0.0500667
0.061131
0.0651307
0.0732613
0.0810829
0.0332956
0.018916
3.11797
3.00637
2.06449
0.0713929
0.0346549
0.0291154
0.0392812
0.0449846
0.0429225
0.0443538
0.059518
0.0733858
0.0751178
0.070919
0.0642639
0.0269042
0.0309571
7.97854
2.41837
1.45814
0.222185
0.132551
0.0988635
0.0808203
0.0751809
0.0744469
0.0820001
0.100403
0.112645
0.101933
0.0742222
0.0488414
0.0258549
5.31476
1.53955
0.740225
0.522122
0.432406
0.313335
0.278657
0.281827
0.274619
0.241895
0.177468
0.105451
0.0678303
0.038766
1.47781
0.909739
0.6548
0.483411
0.39053
0.333573
0.271767
0.183025
0.11756
0.0862158
0.0656164
0.755893
0.559322
0.448797
0.353119
0.272822
0.211571
0.149741
0.11877
0.00426847
0.00546348
0.00649972
0.619056
0.0558083
0.0291275
0.0219828
0.0110777
0.0102473
0.00950549
0.00666446
0.00505411
2.16941
0.217215
0.137858
0.037798
0.0322743
0.0254273
0.0132783
0.0119575
0.0101376
0.00892475
0.00674476
0.00444598
0.00487323
3.03417
0.0467943
0.0412478
0.0251563
0.0227964
0.0231881
0.0190844
0.015338
0.0141145
0.0135959
0.0136895
0.0117252
0.0106003
0.00663339
0.00407825
15.4191
3.10141
0.661471
0.0383551
0.0165362
0.0158651
0.0169249
0.0175283
0.0174777
0.0169928
0.0164833
0.0166525
0.0176077
0.0156256
0.0142826
0.00790715
3.34721
0.700379
0.0453561
0.0197156
0.0168686
0.0160123
0.0177963
0.0203993
0.0217722
0.0214367
0.0205162
0.0207349
0.0222853
0.0234969
0.0220695
0.0135662
0.00795584
8.36608
1.9302
0.689329
0.135432
0.0200127
0.0168375
0.0188739
0.0216527
0.0251875
0.0269882
0.025936
0.0244643
0.0249295
0.028653
0.032597
0.0312399
0.0185431
0.013702
0.00644324
2.57216
1.76272
0.660641
0.102872
0.0181281
0.0183159
0.0209355
0.0242464
0.0282419
0.0291978
0.0250674
0.0221336
0.0258785
0.034969
0.045868
0.0473402
0.026934
0.0169825
0.0107096
1.202
0.540214
0.286617
0.0436032
0.0179786
0.0194205
0.0217498
0.0251819
0.0285561
0.026669
0.021214
0.024903
0.0334069
0.0466393
0.0633386
0.0667376
0.0373794
0.0204661
0.016691
5.34709
0.382729
0.217055
0.108623
0.0270749
0.018905
0.0198914
0.0218182
0.0247148
0.0257569
0.0213321
0.0190335
0.02385
0.0302911
0.0595992
0.0898785
0.0947818
0.045094
0.0245857
0.0184492
7.70393
0.136515
0.259391
0.18178
0.0236627
0.0188051
0.0194841
0.0214271
0.0235804
0.0227006
0.0187362
0.0181933
0.0223014
0.0428631
0.0897626
0.122913
0.127653
0.0484722
0.0258842
0.0164887
13.7073
0.08469
0.397643
0.283564
0.0236225
0.0175059
0.0182954
0.0205828
0.0241257
0.0231689
0.0176817
0.0187192
0.0338073
0.0732864
0.10875
0.144558
0.145283
0.0490126
0.0235773
0.0148148
0.202818
0.332236
0.253677
0.0293975
0.0157655
0.0167577
0.0237696
0.0290549
0.0233642
0.0220941
0.0312578
0.0446546
0.0619918
0.0842837
0.133729
0.141798
0.0724182
0.0222943
0.0159695
1.4279
0.320758
0.187612
0.0343289
0.015773
0.0199404
0.0342822
0.0303646
0.026788
0.0307123
0.0364221
0.0380194
0.0509925
0.0713413
0.109429
0.114687
0.0577418
0.020717
0.030873
9.22669
0.477375
0.36504
0.0398897
0.0198299
0.0327428
0.0403242
0.0289969
0.0264336
0.0300906
0.0329405
0.0361733
0.0528073
0.0684556
0.0940457
0.105957
0.0394589
0.0188087
2.05346
0.653783
0.0735613
0.0441512
0.0573264
0.0571176
0.0375537
0.0330415
0.0357507
0.0381621
0.0452091
0.0620948
0.0747523
0.0779037
0.089029
0.0307866
0.0272451
3.25146
1.08217
0.41253
0.120182
0.0797218
0.0851392
0.0780932
0.0709639
0.0684071
0.0712878
0.0777234
0.0937147
0.0921507
0.092352
0.0663621
0.0289405
2.01542
0.700416
0.236823
0.109473
0.0870925
0.116778
0.123652
0.13306
0.153022
0.142134
0.139424
0.118496
0.0847385
0.053176
0.87674
0.465909
0.340788
0.268478
0.230598
0.21685
0.207138
0.182214
0.133093
0.0869275
0.0941212
0.575432
0.390808
0.282256
0.223225
0.182223
0.154156
0.127705
0.113672
0.00478118
0.00553216
0.00714005
0.707507
0.0267024
0.0170647
0.0141242
0.0144217
0.0159606
0.0170025
0.0158056
0.0113089
2.57436
0.228897
0.120753
0.0228845
0.0133824
0.0132448
0.0133942
0.0135405
0.0128156
0.0131876
0.012424
0.00972621
0.0108118
5.56267
0.0429589
0.0399804
0.0190218
0.01248
0.0133194
0.0143961
0.0151739
0.0157511
0.0160106
0.0164098
0.015845
0.0150266
0.00878147
0.00608902
20.4855
0.0575636
0.0213123
0.0142353
0.0125887
0.0121185
0.0139943
0.016157
0.0179369
0.0189176
0.0193932
0.0201633
0.0216184
0.0208543
0.0188493
0.00877808
2.70012
0.0324246
0.0140962
0.0121302
0.0122668
0.0140167
0.017223
0.0201449
0.0219255
0.0231488
0.0242096
0.0258863
0.0280644
0.0290408
0.0265627
0.0160538
0.00713176
9.02375
0.626835
0.0428233
0.0142811
0.0126492
0.0148855
0.0185145
0.0220407
0.0249443
0.0273374
0.0292716
0.0313424
0.0351984
0.0393979
0.0409208
0.0349048
0.0203511
0.0142385
0.00608345
1.99877
0.20954
0.035949
0.0154751
0.01529
0.0188439
0.0218091
0.0240543
0.0274789
0.0321245
0.0357233
0.039651
0.0465011
0.056407
0.0630369
0.0520291
0.0236798
0.0186581
0.00991193
0.492378
0.0656147
0.0276085
0.0174882
0.0184019
0.021194
0.0224695
0.0247758
0.0297457
0.0345118
0.0360307
0.0393367
0.050861
0.069826
0.0895197
0.0780228
0.0305435
0.0193567
0.0147547
5.55815
0.143965
0.0404588
0.0230533
0.019513
0.020035
0.0214008
0.0224128
0.0254062
0.0298039
0.0315614
0.0306389
0.0366529
0.0516544
0.0853709
0.118536
0.115271
0.037598
0.0195322
0.0177068
8.07494
0.0581782
0.029813
0.0228613
0.0200465
0.0197797
0.0207115
0.0221223
0.0248721
0.0272718
0.0259752
0.0254565
0.0325387
0.0587607
0.104371
0.151242
0.152387
0.0441084
0.0203544
0.0167285
12.8231
0.035798
0.0255791
0.0231297
0.019036
0.0186254
0.0196248
0.0211801
0.023672
0.0253319
0.0224227
0.0220907
0.0326601
0.0605835
0.0993021
0.160568
0.16647
0.0484274
0.0209495
0.0142832
0.178744
0.0261639
0.0223625
0.0172921
0.0168942
0.0180237
0.0202534
0.0261214
0.0261568
0.0218727
0.0232043
0.031895
0.0516445
0.0799327
0.143449
0.162192
0.0758092
0.0210803
0.014657
3.29302
0.0702887
0.0212474
0.016141
0.015448
0.0171838
0.0246617
0.0312821
0.0268835
0.0231817
0.0238471
0.0296983
0.047421
0.0687876
0.119157
0.132784
0.064052
0.0207376
0.0223714
7.69125
0.421549
0.0337434
0.02097
0.0178748
0.0214529
0.0327361
0.0358921
0.0289861
0.0256713
0.0269541
0.0340951
0.0498569
0.0656845
0.105309
0.12558
0.045605
0.0191899
1.87087
0.379736
0.0948341
0.0443112
0.0370998
0.0489215
0.0511906
0.0431959
0.0392512
0.0397766
0.0457698
0.0578265
0.0712796
0.0810985
0.107447
0.0341772
0.0222745
2.74353
0.737673
0.258188
0.0876822
0.0579585
0.0665608
0.0844723
0.0810204
0.0741833
0.0724217
0.0737435
0.0873216
0.0856599
0.0987916
0.0752097
0.0284914
1.48689
0.420743
0.139024
0.0725057
0.0605381
0.0915077
0.116991
0.131187
0.147036
0.134816
0.129629
0.120904
0.0975842
0.0548513
0.401747
0.196175
0.162279
0.178631
0.179166
0.17308
0.168388
0.161067
0.132495
0.0895466
0.100434
0.488757
0.326358
0.232194
0.166445
0.137107
0.11151
0.0910096
0.0993306
0.00458935
0.00468966
0.00613051
0.581051
0.0265161
0.015612
0.0176121
0.0184625
0.0205661
0.0221448
0.0213868
0.0178113
3.18885
0.232989
0.122312
0.0250861
0.0146244
0.0135121
0.0136799
0.0141353
0.0140601
0.0149395
0.0161898
0.0189941
0.0224451
7.05112
0.0607899
0.0565426
0.0254393
0.0130371
0.012073
0.0128785
0.014351
0.015602
0.0163683
0.016831
0.0163335
0.017418
0.0139889
0.014698
34.5233
0.0535128
0.0283973
0.0196119
0.0148399
0.0113282
0.0125142
0.014782
0.0170622
0.018447
0.0192744
0.0200512
0.0210398
0.020675
0.0207645
0.0115311
1.98509
0.0345601
0.0180932
0.0145464
0.0129105
0.0136901
0.0168068
0.0196612
0.0210558
0.0220937
0.0233835
0.0248429
0.0263232
0.0269966
0.0256191
0.0180638
0.00814965
12.8238
0.455679
0.0249365
0.0159072
0.0147103
0.0165367
0.0200833
0.0232111
0.0246073
0.0252283
0.0268906
0.0299303
0.03334
0.0357898
0.0357194
0.0309112
0.0214187
0.015596
0.0053348
6.45049
0.205598
0.0218869
0.0173471
0.019174
0.0225247
0.0243992
0.0245571
0.0252296
0.0290702
0.0356852
0.042016
0.0481677
0.0532023
0.0527863
0.0418104
0.023851
0.0195028
0.00945764
0.749343
0.0551192
0.0214064
0.0208207
0.0234045
0.0247037
0.024192
0.0243896
0.0282805
0.0367867
0.047103
0.0574541
0.0678689
0.0767193
0.0789358
0.060745
0.0288932
0.0189982
0.0148515
10.241
0.214548
0.0362265
0.0216186
0.0224639
0.0239957
0.0241697
0.0242344
0.0265509
0.0326804
0.0416886
0.0504558
0.0592545
0.0750346
0.0979295
0.111925
0.089689
0.0336656
0.0185016
0.0180868
12.3335
0.0865058
0.02789
0.0212715
0.0221202
0.0232168
0.0238913
0.0250034
0.0278915
0.0333973
0.0388499
0.0421898
0.0497832
0.0698387
0.102048
0.142765
0.124357
0.0396165
0.0190573
0.0166653
16.363
0.0471788
0.023586
0.0201341
0.0210105
0.0223514
0.0235058
0.0246835
0.027184
0.0315215
0.0326958
0.0326455
0.0400469
0.0595057
0.0895167
0.150203
0.147866
0.0451679
0.020814
0.0137127
0.0617677
0.0219848
0.0184703
0.01922
0.0207183
0.0219841
0.0231812
0.0268818
0.0310216
0.0288194
0.0274414
0.0341284
0.0515143
0.0748765
0.134698
0.151051
0.0707718
0.022379
0.0117895
1.89965
0.0219246
0.0174853
0.0175908
0.0185784
0.0199085
0.0232706
0.0306397
0.0334122
0.0292486
0.0274011
0.0334556
0.0491428
0.0661733
0.120843
0.130556
0.0630033
0.0220091
0.0144668
7.98604
0.156675
0.0227148
0.0198146
0.0188448
0.0203958
0.0271481
0.0372562
0.0405448
0.0371893
0.035147
0.040979
0.0524547
0.0650623
0.115273
0.132405
0.0456479
0.0193224
1.69839
0.208682
0.0552935
0.0321738
0.0283737
0.0356069
0.0483563
0.0556153
0.0532235
0.050137
0.0528171
0.0605576
0.0731945
0.0886721
0.111397
0.0332304
0.0184034
2.68537
0.632738
0.179012
0.0654621
0.0436605
0.0462703
0.0639525
0.0795868
0.0826278
0.0803648
0.0794978
0.0913697
0.0887238
0.110201
0.0685518
0.02515
1.43023
0.379872
0.107317
0.0538174
0.0436328
0.0619292
0.107215
0.150205
0.175256
0.159782
0.145671
0.12571
0.0947022
0.0442816
0.305629
0.121705
0.0794693
0.105804
0.139514
0.152302
0.154194
0.142927
0.115606
0.083608
0.0774262
0.317772
0.200266
0.187424
0.125627
0.108993
0.0911516
0.0710693
0.114801
0.00530899
0.0056145
0.006223
0.377211
0.0371531
0.0115518
0.0157012
0.0212291
0.0227036
0.0228189
0.0198185
0.0186237
3.41952
0.303004
0.120647
0.0261094
0.0173999
0.0158786
0.0145195
0.0144439
0.0148089
0.0156766
0.0172806
0.0253579
0.0354157
6.411
0.10019
0.0788644
0.0296199
0.0156792
0.0133844
0.012551
0.0136491
0.0150469
0.0159489
0.0164076
0.0159643
0.0174806
0.0206578
0.0342347
27.4474
0.111401
0.0597049
0.0270972
0.0184144
0.0128458
0.0128035
0.0143798
0.0164871
0.0176841
0.01826
0.0188458
0.0194539
0.0190699
0.0204943
0.0162523
1.77204
0.066012
0.028255
0.0190859
0.015649
0.015522
0.0180443
0.0205484
0.0212917
0.0209877
0.0212193
0.0220515
0.0229815
0.0235187
0.022854
0.017999
0.0116418
21.8172
0.232902
0.0319581
0.0232328
0.0198173
0.0212927
0.0244234
0.0266374
0.0265896
0.0246145
0.0237862
0.0253512
0.027584
0.0291205
0.0289179
0.0260644
0.020489
0.0141053
0.00877247
11.5346
0.232534
0.027744
0.0254894
0.0266314
0.0288086
0.0290051
0.0268773
0.0242954
0.0242463
0.0281178
0.033481
0.0384686
0.0412608
0.0398327
0.0324583
0.0233808
0.0164921
0.0125478
2.59359
0.0599042
0.0272508
0.0280769
0.0294228
0.0291115
0.0268665
0.024734
0.0254417
0.0309045
0.0399518
0.0488413
0.0558889
0.0610805
0.0593251
0.0438975
0.0273036
0.0173895
0.0187592
19.7217
0.548424
0.0398128
0.0262413
0.0277671
0.0286625
0.0281527
0.0272749
0.0281413
0.0324631
0.0407914
0.0520391
0.0631693
0.0729378
0.0821477
0.0880766
0.0633159
0.0298269
0.0194055
0.0192589
21.1598
0.149589
0.031349
0.0253647
0.0273024
0.0287971
0.0293301
0.0297296
0.0314089
0.0358822
0.0438125
0.0526085
0.0610375
0.0697127
0.0862644
0.11702
0.0902504
0.0335324
0.0211571
0.0170057
23.4975
0.0648104
0.0267574
0.0242741
0.0266825
0.0288418
0.029957
0.0304041
0.0317256
0.03605
0.0412077
0.0448533
0.0516701
0.0612045
0.0762665
0.124202
0.11381
0.0384504
0.0232491
0.0146834
0.0694683
0.0236954
0.0222073
0.0246996
0.0270805
0.0283146
0.0289857
0.0312744
0.0363819
0.0388871
0.0392607
0.0449936
0.0542321
0.0674204
0.119201
0.122102
0.057213
0.0255895
0.0121048
1.78651
0.0208083
0.0199093
0.0217727
0.0236013
0.0249808
0.0271777
0.0328309
0.0398656
0.041817
0.0415782
0.0463348
0.0526129
0.0629444
0.115323
0.110996
0.0548717
0.0240408
0.012411
8.28068
0.0965462
0.0202531
0.020818
0.0213431
0.0227168
0.0267612
0.0352422
0.0446052
0.0490399
0.0503141
0.0529867
0.0559766
0.0645551
0.117742
0.121438
0.0416295
0.0192094
1.69278
0.0863721
0.0319757
0.027198
0.0257277
0.0295513
0.0379411
0.0478223
0.054502
0.0568694
0.0591079
0.0632882
0.0754263
0.0953181
0.0971433
0.0302729
0.0144182
2.75583
0.68771
0.162517
0.0600384
0.0384814
0.0355952
0.0437403
0.056493
0.0692076
0.0777148
0.0840791
0.0946677
0.091486
0.115729
0.0541783
0.0204369
1.50277
0.38181
0.0975095
0.0458194
0.034293
0.0408455
0.0775218
0.135454
0.172464
0.167635
0.149538
0.11934
0.0759434
0.0323809
0.290715
0.0960352
0.0535538
0.0569678
0.107448
0.116135
0.116399
0.111029
0.0918783
0.0684826
0.0496822
0.242218
0.0756277
0.125871
0.101556
0.0812799
0.0751166
0.0619674
0.127482
0.00513448
0.00452536
0.00466204
0.282105
0.0210229
0.00675853
0.00762154
0.0131035
0.0174919
0.0172677
0.0136007
0.0150477
2.42604
0.483241
0.0849242
0.0169435
0.014232
0.0163665
0.0152386
0.0140942
0.0146094
0.0152918
0.0169067
0.0265996
0.0466029
5.21601
0.188779
0.0808601
0.0225927
0.0132227
0.0134389
0.0126561
0.0127712
0.0139975
0.0147576
0.0150038
0.0146595
0.0154737
0.0208291
0.0548761
16.715
0.213953
0.083323
0.026082
0.0161112
0.013168
0.0136448
0.0144223
0.0161369
0.0171137
0.0171437
0.0170645
0.0171143
0.0166111
0.0180648
0.0202995
1.6408
0.0709729
0.0305993
0.0206254
0.0178974
0.0189494
0.0207711
0.0224496
0.022705
0.0212024
0.0198695
0.0194715
0.0195205
0.0192766
0.0182068
0.0161263
0.0179271
25.1968
0.111783
0.0334759
0.0289579
0.0273965
0.0293379
0.0315945
0.0321744
0.0307394
0.0265595
0.0228528
0.021922
0.0225103
0.0231138
0.0224835
0.0198563
0.0158159
0.00928925
0.0157748
15.2142
0.103012
0.0333142
0.0338654
0.0357743
0.0365366
0.0346641
0.0306085
0.0257167
0.0225207
0.02308
0.0256611
0.0285406
0.0300681
0.0286203
0.0234374
0.0186846
0.00710501
0.013087
5.30826
0.0587784
0.0332002
0.0343775
0.035423
0.03375
0.0300745
0.0261881
0.024301
0.0259087
0.0300099
0.0351849
0.0404561
0.0435954
0.0407299
0.0291076
0.0225317
0.00679838
0.0134634
28.0787
1.27817
0.0454808
0.0319641
0.0336734
0.0347721
0.0335471
0.03155
0.0309421
0.0331116
0.0375712
0.0432286
0.0481239
0.0536832
0.0618493
0.0621832
0.0391996
0.0255202
0.0103469
0.0112461
27.294
0.304443
0.038617
0.0316656
0.0344262
0.0365718
0.0365269
0.0355485
0.0354155
0.0372043
0.0409192
0.0463792
0.0512494
0.0548871
0.0691513
0.0880139
0.0551027
0.0282829
0.0173016
0.00937356
25.1522
0.136532
0.0343198
0.0308236
0.0342891
0.0371334
0.0376101
0.0365668
0.0357566
0.036729
0.0397352
0.0437148
0.0477689
0.0505639
0.0633323
0.098661
0.0726078
0.0316351
0.0247746
0.0100364
0.267527
0.0312356
0.0286089
0.0320913
0.0350717
0.035867
0.0354737
0.0355457
0.0380622
0.0410305
0.0430905
0.0460466
0.0479954
0.0586133
0.0991469
0.0828207
0.040783
0.0286229
0.0110201
2.3859
0.0296403
0.0262281
0.0284553
0.0306663
0.0318609
0.0329339
0.0356977
0.0407475
0.0447794
0.0466501
0.048388
0.0485844
0.0570796
0.101347
0.0788446
0.0425363
0.0240583
0.00776961
8.3261
0.0595154
0.0263863
0.0268754
0.0272579
0.0282197
0.0302138
0.0344059
0.0405826
0.0460508
0.0492704
0.0508079
0.0505794
0.0601944
0.106784
0.092964
0.0352725
0.0179176
1.78425
0.123613
0.0369792
0.0328376
0.0292292
0.0299152
0.0330707
0.0379909
0.0433086
0.0477443
0.0518969
0.0568109
0.0721623
0.0934297
0.0707838
0.0264657
0.0109591
2.60783
0.727039
0.18227
0.0602091
0.0387338
0.0326187
0.0340381
0.0399069
0.0493925
0.0617604
0.0751308
0.0832138
0.0831991
0.10246
0.0403394
0.0161619
1.64648
0.335641
0.0842339
0.0430075
0.0318887
0.0324988
0.0517163
0.099224
0.136376
0.138319
0.128575
0.103407
0.0556842
0.0243964
0.260465
0.0743641
0.0420836
0.0382124
0.0866143
0.11474
0.106431
0.0975756
0.0780462
0.0550415
0.0347454
0.243634
0.0579698
0.0618746
0.0789912
0.062227
0.0584747
0.0550992
0.0947748
0.00339669
0.00360611
0.00441883
0.268571
0.0136239
0.00344634
0.0032968
0.00532391
0.00869821
0.00981906
0.00780883
0.0107473
1.21366
0.373752
0.049611
0.00855562
0.00933694
0.012196
0.013944
0.0131827
0.013772
0.0142021
0.0157684
0.0250607
0.0482259
3.4808
0.322023
0.0809918
0.0144608
0.00969627
0.0109417
0.0115946
0.0119214
0.0128995
0.013343
0.013146
0.0125185
0.0128771
0.0178556
0.0667535
9.90946
0.328205
0.0844014
0.0226935
0.0139711
0.0131935
0.0139352
0.01446
0.0157165
0.0166383
0.0162628
0.0154291
0.0146967
0.0137332
0.0148704
0.0201925
1.84954
0.0757182
0.0314705
0.0256617
0.0239897
0.0240991
0.0241195
0.0246271
0.0246604
0.0225801
0.0200385
0.0182652
0.0171493
0.0159547
0.0144115
0.014652
0.025506
19.5549
0.136036
0.0399072
0.0374147
0.0392703
0.0403802
0.0400054
0.0385372
0.035936
0.0304759
0.0247331
0.0215131
0.0202481
0.0197116
0.0184615
0.0156508
0.0111922
0.00922638
0.026282
13.5281
0.0826278
0.0407761
0.0411873
0.0434682
0.0428834
0.039486
0.0343698
0.0284795
0.0238066
0.0218505
0.0216311
0.0222818
0.022734
0.0215095
0.0182513
0.0127472
0.00518485
0.0117284
7.35666
0.0679546
0.0403613
0.0401149
0.0405511
0.0379416
0.0331332
0.0281827
0.0248819
0.0244192
0.0254441
0.0268988
0.0287784
0.0298408
0.0268245
0.0208311
0.0166932
0.00460103
0.00835183
25.8175
2.7433
0.0589956
0.0394061
0.04069
0.0418273
0.0399597
0.0365626
0.0344477
0.0350032
0.0366568
0.0376038
0.0378245
0.0398723
0.0436672
0.0386513
0.0250322
0.0215253
0.006511
0.0051029
26.7112
0.878917
0.0508322
0.0394285
0.042355
0.0447748
0.0441746
0.0415749
0.039631
0.0401858
0.0425215
0.0447696
0.0448854
0.0456737
0.0563761
0.0574745
0.0320277
0.0256171
0.0127231
0.00456556
24.9193
0.378338
0.0469002
0.0396808
0.0431459
0.046193
0.0461042
0.0431917
0.0398095
0.0378888
0.0379745
0.0399283
0.0420062
0.0437828
0.0556293
0.0728683
0.0414644
0.0271855
0.0215175
0.00816225
0.271625
0.0464401
0.0393967
0.04241
0.0456453
0.0461169
0.0439217
0.0407839
0.0389924
0.0389177
0.0397054
0.0403572
0.0415841
0.0528144
0.0775805
0.0499102
0.0294075
0.0239334
0.00382686
1.19866
0.0557397
0.0385443
0.0399919
0.0427927
0.0439715
0.042991
0.0413156
0.0411182
0.0417694
0.0420718
0.0415102
0.0413503
0.0520807
0.0814225
0.0505708
0.0319764
0.0197253
0.00470656
5.62461
0.300072
0.0476708
0.0413872
0.0394142
0.0396275
0.0395737
0.0393436
0.0398393
0.0408378
0.0413383
0.0408854
0.0415106
0.055573
0.0832706
0.0615701
0.0288888
0.0147309
1.64487
0.285868
0.0727569
0.0458043
0.0391037
0.0373962
0.0367168
0.0366497
0.0373456
0.0387343
0.0414571
0.0461232
0.0675941
0.0821006
0.0469169
0.0221015
0.00779492
2.63085
0.5952
0.151961
0.0591048
0.0429553
0.0369689
0.0350497
0.0356583
0.0395206
0.0486281
0.05766
0.0665234
0.0726055
0.0779705
0.0306088
0.0124556
1.9076
0.249461
0.0742591
0.0453355
0.0360889
0.0342028
0.0410559
0.0668743
0.0968918
0.102029
0.104191
0.0887722
0.0418773
0.0191858
0.256786
0.067626
0.0409935
0.0357411
0.0590461
0.126407
0.139988
0.121443
0.0808776
0.0482432
0.0278847
0.313012
0.0703514
0.0448383
0.0886916
0.0748225
0.061539
0.0604158
0.0663644
0.00167345
0.00275571
0.00424877
0.2479
0.0161252
0.00137545
0.00141038
0.00210072
0.00330524
0.00419295
0.00410983
0.00754714
0.788077
0.255925
0.0346434
0.00491126
0.00584971
0.00733458
0.00922027
0.011053
0.0122706
0.012894
0.0141028
0.0195789
0.0367282
1.86306
0.164398
0.0561235
0.0121061
0.00874774
0.00876158
0.00962109
0.0109486
0.0122947
0.0126068
0.0120103
0.0107381
0.0106412
0.014976
0.0647837
5.23171
0.206668
0.0572118
0.0261419
0.019466
0.0166587
0.0146974
0.0142817
0.0152223
0.0163487
0.0158732
0.0145571
0.0131302
0.0113567
0.0118702
0.0162775
1.66229
0.0769121
0.0412364
0.0391453
0.0359056
0.0314943
0.0280502
0.0269193
0.0266437
0.0244511
0.0212788
0.0185156
0.0164221
0.0145165
0.0128545
0.0128614
0.0255936
11.501
0.150869
0.0514535
0.0481166
0.0504663
0.0503014
0.0476417
0.044602
0.041217
0.0351871
0.0284477
0.0237043
0.0209842
0.0194769
0.0178069
0.0151049
0.0109967
0.0090635
0.0258172
5.28681
0.081675
0.0491502
0.047067
0.0477595
0.0462137
0.0423565
0.0372635
0.0315403
0.0266075
0.0232076
0.0212072
0.0204627
0.0204447
0.0201367
0.0185038
0.0130675
0.00673555
0.00690449
4.5499
0.0701738
0.0481732
0.0463832
0.0456678
0.042022
0.0362442
0.0304489
0.026375
0.0246274
0.0233552
0.0224062
0.0221395
0.0220375
0.0209992
0.0201907
0.0176685
0.00895099
0.00353563
20.4634
3.11932
0.0668959
0.0483208
0.0487853
0.0494379
0.0467528
0.0419748
0.0379892
0.036354
0.0354941
0.0338577
0.0312318
0.0299564
0.0291418
0.0246865
0.0210094
0.0215048
0.0113972
0.00444861
24.4268
1.20644
0.0634126
0.050045
0.0519609
0.0538428
0.0523111
0.0480955
0.0441785
0.0435271
0.0453751
0.0459755
0.042383
0.0401013
0.0414875
0.0336962
0.0224939
0.0238984
0.011799
0.00967102
21.815
0.454055
0.0636187
0.0526013
0.0548674
0.0575635
0.0566225
0.0516799
0.0454002
0.0414913
0.0414566
0.0437855
0.0439476
0.0432462
0.0496125
0.0461991
0.0256924
0.0239331
0.0161626
0.0019122
0.384534
0.0708038
0.0546771
0.0569946
0.0604014
0.0600782
0.0554462
0.048609
0.0428537
0.0400597
0.0399795
0.0402367
0.0411447
0.0501747
0.0547679
0.0302047
0.023555
0.0171813
0.00234538
2.9629
0.11974
0.0612471
0.0585751
0.0612347
0.0616762
0.0581635
0.052132
0.0462072
0.0424113
0.0402915
0.0386932
0.0393169
0.0509669
0.0581497
0.0326516
0.0249468
0.0144488
0.00300049
3.88749
0.608258
0.114919
0.0630676
0.0585807
0.0587999
0.0568338
0.0522052
0.0469944
0.0428737
0.039874
0.0377796
0.0390603
0.0556544
0.0589963
0.0391702
0.0234915
0.0111474
1.24085
0.244184
0.0916004
0.0589165
0.0541979
0.0520621
0.0489623
0.0450337
0.0414063
0.0390843
0.0387836
0.0436257
0.0654923
0.064933
0.0317641
0.0177836
0.00532521
3.11672
0.343896
0.114482
0.0614953
0.0521562
0.0483665
0.0455185
0.042865
0.0414547
0.0434936
0.0476887
0.0603093
0.068922
0.0546153
0.0241059
0.00934053
2.26825
0.17937
0.0765614
0.0549408
0.0487397
0.0461208
0.0454538
0.0523931
0.066823
0.0719715
0.083421
0.0764717
0.0333722
0.0150365
0.398892
0.100503
0.0537533
0.0453932
0.0514509
0.0799737
0.11552
0.123461
0.0909607
0.0451232
0.0227344
0.804454
0.135889
0.0661723
0.073761
0.0992612
0.102225
0.0963038
0.0541059
0.000549105
0.00108176
0.00214031
0.287223
0.0366018
0.000944382
0.000559278
0.000828202
0.00122076
0.00154059
0.00251377
0.00765866
0.727875
0.215857
0.0269809
0.00461243
0.00420458
0.00404033
0.0046484
0.00629553
0.00848244
0.00999461
0.010257
0.0105865
0.0217823
0.987869
0.0888954
0.0416321
0.0197867
0.0139339
0.00963469
0.00840659
0.00960795
0.0118602
0.0128373
0.0123596
0.010718
0.010038
0.0121783
0.0422442
2.64801
0.118856
0.0544016
0.0401334
0.0330656
0.0246731
0.0175644
0.0146449
0.0148457
0.0162777
0.0162687
0.0151519
0.0135668
0.010708
0.0101499
0.0117498
0.830245
0.0812765
0.0539385
0.0522191
0.0475025
0.039749
0.0331591
0.0298771
0.0287008
0.0266164
0.0232294
0.0200614
0.0177315
0.0157694
0.0130968
0.0104371
0.0177231
6.39394
0.158893
0.0646029
0.0558875
0.0559714
0.0556236
0.0531426
0.0499045
0.046148
0.0401696
0.0331577
0.0274615
0.0236133
0.0213357
0.0197862
0.0184444
0.0131179
0.00852333
0.0261372
3.60769
0.123885
0.0594728
0.0525344
0.0504812
0.0479617
0.0441588
0.0396257
0.0346387
0.0301517
0.026156
0.0232387
0.0217774
0.0217341
0.0223306
0.0219344
0.0205751
0.0130841
0.010205
1.85717
0.0851556
0.0583432
0.0541675
0.0518532
0.047117
0.0402529
0.033457
0.0287381
0.0255045
0.0228519
0.0207315
0.0196715
0.0197923
0.0209163
0.0229053
0.0223158
0.0264914
0.0116839
14.7196
1.8066
0.0784965
0.0599154
0.058787
0.0581056
0.0542275
0.0476544
0.0411025
0.0363967
0.0330638
0.0294168
0.0254561
0.0226818
0.0210296
0.019807
0.0211837
0.0208628
0.0163935
0.026589
14.42
1.06988
0.0822731
0.0635264
0.0637773
0.0645088
0.0617058
0.0554239
0.0486808
0.0452916
0.0450268
0.0426825
0.0365947
0.0314276
0.0274578
0.0218389
0.0203258
0.0203417
0.00886015
0.00572603
10.7087
0.949563
0.0927323
0.0687437