/*--------------------------------*- C++ -*----------------------------------*\
| =========                 |                                                 |
| \\      /  F ield         | OpenFOAM: The Open Source CFD Toolbox           |
|  \\    /   O peration     | Version:  2406                                  |
|   \\  /    A nd           | Website:  www.openfoam.com                      |
|    \\/     M anipulation  |                                                 |
\*---------------------------------------------------------------------------*/
FoamFile
{
    version     2.0;
    format      ascii;
    arch        "LSB;label=32;scalar=64";
    class       volScalarField;
    location    "150";
    object      k;
}
// * * * * * * * * * * * * * * * * * * * * * * * * * * * * * * * * * * * * * //

dimensions      [0 2 -2 0 0 0 0];

internalField   nonuniform List<scalar> 
238188
(
0.089596
0.0768229
0.0987516
0.0979453
0.0667007
0.0832937
0.0873143
0.166191
0.0978726
0.0711252
0.0913259
0.0936714
0.146957
0.189079
0.0708659
0.0850852
0.140141
0.220606
0.0957154
0.92782
0.572521
0.971058
0.312625
0.208072
0.314243
0.347014
0.521494
0.220387
0.257798
0.234536
0.282404
2.01853
0.43989
0.170191
0.265966
1.56815
0.418511
0.0871307
0.00994561
0.0150048
0.170841
0.166038
0.276961
0.254273
0.0257335
0.0217263
0.0237546
0.0153641
0.0155066
0.766776
0.427206
0.415709
0.367608
0.442703
0.413628
0.244606
0.0520529
0.0449753
0.0300657
0.0148787
0.00893419
0.00972437
2.56518
0.61739
0.913047
1.73271
0.528065
0.397515
0.467419
0.237943
0.0647985
0.0501555
0.0369529
0.0229912
0.0114438
0.00678484
0.00778998
9.69542
4.36766
17.0537
5.77779
1.79294
1.90527
2.73207
0.17058
0.0874924
0.0653719
0.0573614
0.044103
0.0305053
0.0175093
0.00775965
0.00513587
10.7883
15.8962
2.82802
0.611256
0.688736
0.92523
1.00739
0.182648
0.0796696
0.0658811
0.0586161
0.0423189
0.0270228
0.0164528
0.00939441
0.00584816
0.00630997
4.51012
16.0738
10.1933
1.00834
0.785297
0.604667
0.72771
1.10945
0.246037
0.0902727
0.0689965
0.0602667
0.0379797
0.0203219
0.0146348
0.012629
0.0102676
0.00728504
0.0156746
4.11647
14.1701
9.06912
3.09585
2.66284
0.907672
0.971783
0.342144
0.17672
0.0955724
0.0757389
0.0655546
0.0339141
0.022354
0.0239791
0.025232
0.0232925
0.0157955
0.0130876
3.89944
10.0629
8.93946
4.68842
1.31516
0.828729
0.190362
0.18691
0.14648
0.0977778
0.0832776
0.0666265
0.0313293
0.0227525
0.0273099
0.0370708
0.0413997
0.0319007
0.0148781
2.46232
3.75782
6.67755
8.15203
2.95096
0.154725
0.102384
0.128249
0.142808
0.122787
0.0972152
0.0732383
0.0564133
0.0217401
0.0121818
0.0180825
0.0308223
0.0406311
0.037887
0.0168385
2.52108
3.58658
4.85551
7.26093
2.09108
0.0852609
0.0906251
0.115514
0.121822
0.086144
0.0575109
0.0544508
0.0306656
0.00856329
0.0137205
0.0196934
0.0253164
0.0400667
0.0329547
0.0224583
2.46494
3.89626
3.91847
6.76074
2.09109
0.0709291
0.0980987
0.103079
0.061151
0.0408227
0.0356977
0.0254462
0.0159411
0.0357931
0.0362576
0.0238383
0.0185482
0.018381
0.0356567
0.0234872
4.81286
3.44745
6.14728
3.04392
0.0541703
0.0357419
0.0292158
0.0184999
0.0142321
0.0194893
0.0783716
0.257012
0.18744
0.136412
0.0580915
0.0247564
0.0130581
0.00857446
0.00959596
4.28865
3.37977
4.93042
4.65161
0.0361027
0.0523927
0.10624
0.183334
0.265846
0.337926
0.380282
0.407357
0.433453
0.397905
0.162294
0.038221
0.0157133
0.00789218
0.0128991
3.46083
4.09805
3.61555
5.76528
0.261922
0.226074
0.310558
0.381056
0.414287
0.428655
0.431914
0.435702
0.469768
0.519199
0.358368
0.0658554
0.0216003
0.0115519
4.20784
3.19301
4.81859
3.46917
1.05967
0.385671
0.407394
0.418097
0.446357
0.477034
0.449002
0.426014
0.445919
0.415131
0.0856181
0.0294647
0.0217176
4.64206
3.93433
3.54277
2.99339
2.38362
1.99117
0.639145
0.494445
0.520107
0.53728
0.429534
0.256078
0.267171
0.269423
0.0830063
0.0393796
3.92498
2.567
2.10414
1.6836
1.36088
0.973301
0.854419
0.792683
0.482076
0.204051
0.107736
0.193711
0.168631
0.0928576
1.83251
1.20486
0.862766
0.621803
0.504298
0.390252
0.234539
0.137496
0.167246
0.209528
0.202197
1.55917
0.873186
0.598403
0.437294
0.383324
0.266181
0.222789
0.256672
0.0226569
0.0200135
0.0322772
0.452204
0.376075
0.158654
0.161941
0.0704077
0.047309
0.0390471
0.0311383
0.0280748
1.14261
0.390342
0.342692
0.252694
0.200591
0.262087
0.152599
0.0666769
0.0509315
0.0418165
0.0348166
0.0255325
0.0206017
1.56154
0.340988
0.237187
0.247513
0.252891
0.24565
0.261334
0.164791
0.086389
0.0666502
0.0586818
0.0512928
0.044036
0.0282635
0.0160257
9.35193
3.49214
2.70963
1.60173
0.732847
0.205022
0.203212
0.176779
0.12246
0.0939393
0.0788121
0.0706457
0.0656258
0.0590473
0.0443423
0.0248892
2.14121
1.51431
1.0164
0.769341
0.292521
0.201568
0.20596
0.142157
0.125633
0.103208
0.0848084
0.0743816
0.0685596
0.0619206
0.0524976
0.0371444
0.0162508
3.05699
1.44781
0.91488
0.878436
0.917638
0.680127
0.298971
0.203381
0.169349
0.148453
0.107807
0.0768208
0.0617261
0.0576621
0.0570021
0.053493
0.0451952
0.0283285
0.00996874
1.70957
1.88019
1.20826
1.04639
0.920805
0.36224
0.189309
0.191885
0.197776
0.15579
0.0935111
0.0627849
0.0558587
0.0581508
0.0667136
0.0681297
0.0537938
0.0373727
0.0159798
1.96342
2.60036
1.80926
0.899404
0.312621
0.157307
0.174581
0.204193
0.198139
0.139103
0.0793449
0.0553097
0.0407593
0.032706
0.0496553
0.0737902
0.0655297
0.0426776
0.0286728
2.81559
1.95094
3.01735
2.73706
0.399876
0.144639
0.162292
0.186732
0.19803
0.176825
0.121721
0.0739907
0.0469717
0.024629
0.0253741
0.0390614
0.0531408
0.0646051
0.0461414
0.0330051
3.47082
1.75637
2.86308
3.08653
0.234301
0.146662
0.16774
0.180881
0.175868
0.149979
0.113601
0.0643296
0.0410295
0.0350784
0.0744303
0.0823235
0.066246
0.0595875
0.045086
0.0349418
5.06042
1.66515
2.65884
3.08929
0.21622
0.141809
0.157426
0.157458
0.144956
0.0978253
0.0537033
0.0358655
0.0626822
0.205598
0.246894
0.247531
0.136432
0.0747558
0.0475485
0.0309919
1.71097
2.3854
3.01632
0.269003
0.124282
0.132211
0.1292
0.0698459
0.0422346
0.0475171
0.112693
0.380515
0.433709
0.476046
0.507995
0.277713
0.103703
0.0512542
0.0311054
2.07474
2.11276
2.87041
0.542517
0.102441
0.136564
0.0940743
0.0950569
0.150543
0.24815
0.38117
0.398223
0.404155
0.448892
0.480478
0.356272
0.121205
0.0512495
0.0463897
4.07949
1.91637
2.53457
0.982778
0.108281
0.129043
0.114195
0.178488
0.258323
0.329978
0.344281
0.370573
0.438225
0.444219
0.415636
0.309882
0.104462
0.0470357
2.10476
2.06509
1.18776
0.13781
0.133098
0.134108
0.195093
0.24699
0.277704
0.325475
0.410222
0.455488
0.431786
0.357991
0.22146
0.0723808
0.0439788
3.24333
1.75517
1.06009
0.277151
0.237548
0.238017
0.268424
0.306475
0.349871
0.409156
0.462006
0.460719
0.384991
0.244989
0.122562
0.0496091
2.34278
1.07229
0.622789
0.511713
0.468164
0.414892
0.431909
0.487754
0.520065
0.494651
0.371828
0.229714
0.132653
0.0664364
0.824538
0.628688
0.529231
0.446062
0.400754
0.385449
0.350195
0.267067
0.192481
0.145466
0.0937118
0.486822
0.438539
0.399572
0.349618
0.301184
0.260213
0.207649
0.170392
0.0222
0.0357134
0.0452805
0.625061
0.116014
0.101316
0.0979555
0.0900399
0.0869773
0.0772953
0.0532715
0.035812
1.18834
0.422369
0.267613
0.136444
0.139209
0.134466
0.114577
0.103269
0.0854515
0.07166
0.0522038
0.0324021
0.0271862
1.38357
0.164631
0.154166
0.134666
0.143489
0.15558
0.149108
0.130934
0.117416
0.107501
0.101355
0.0819942
0.0694368
0.0427638
0.0245381
4.14551
1.2291
0.336414
0.117178
0.126952
0.138748
0.149232
0.153143
0.147786
0.13746
0.126876
0.120332
0.118509
0.0993772
0.0852833
0.0468956
1.40433
0.431552
0.122814
0.114537
0.129115
0.148724
0.164229
0.177633
0.178901
0.167334
0.152538
0.144526
0.144058
0.140854
0.124225
0.0761199
0.0431187
2.65673
0.945862
0.455753
0.165989
0.12663
0.1498
0.176147
0.19529
0.212627
0.214375
0.19678
0.176914
0.167252
0.174342
0.182565
0.164637
0.0997066
0.0704423
0.0309137
1.18376
0.916733
0.469367
0.153138
0.139766
0.170596
0.196084
0.217257
0.23587
0.230641
0.193668
0.161891
0.163403
0.195369
0.2383
0.228856
0.133391
0.0850143
0.0486403
0.783341
0.429597
0.275135
0.133116
0.158648
0.186723
0.207477
0.228077
0.240765
0.215074
0.162551
0.154274
0.167899
0.221327
0.29872
0.299521
0.170679
0.0976552
0.0711401
2.17902
0.371034
0.24473
0.166453
0.14567
0.177495
0.19705
0.213031
0.228291
0.223467
0.176388
0.132297
0.118559
0.130589
0.24831
0.379889
0.393341
0.194588
0.110247
0.0760402
2.98239
0.192651
0.260387
0.187598
0.15931
0.184665
0.198894
0.212743
0.219758
0.196848
0.143594
0.104113
0.0973251
0.179933
0.361875
0.504612
0.499397
0.201803
0.109867
0.062454
4.65162
0.143796
0.356809
0.244262
0.159807
0.179499
0.191923
0.203472
0.203665
0.166478
0.110208
0.090895
0.151749
0.356472
0.524267
0.654481
0.564861
0.201145
0.0945072
0.0448054
0.268543
0.328759
0.23153
0.145253
0.164985
0.176715
0.194547
0.181368
0.129987
0.104323
0.131353
0.232926
0.373293
0.503287
0.69237
0.570041
0.285811
0.0818064
0.0328832
1.10845
0.350032
0.195086
0.125661
0.147218
0.177731
0.204666
0.16034
0.130576
0.138739
0.175522
0.250116
0.36713
0.494919
0.611393
0.487358
0.236985
0.0682506
0.040697
3.73123
0.527367
0.344945
0.111106
0.146144
0.217829
0.216841
0.153475
0.137081
0.155818
0.200894
0.285788
0.414824
0.495119
0.532364
0.472456
0.149956
0.0549634
1.37778
0.641448
0.14068
0.158607
0.269536
0.268427
0.193513
0.184128
0.218627
0.275818
0.361932
0.455939
0.482415
0.454888
0.345714
0.0974477
0.0418923
1.67061
0.850949
0.424323
0.189241
0.212035
0.296119
0.308884
0.32323
0.358483
0.414651
0.460558
0.48526
0.460932
0.383551
0.195232
0.0586109
1.13192
0.551079
0.262472
0.183532
0.216356
0.284179
0.337142
0.394756
0.467525
0.443902
0.421778
0.33936
0.203017
0.0922491
0.549024
0.378615
0.340296
0.32329
0.326127
0.346397
0.353856
0.329187
0.257481
0.174704
0.12223
0.409238
0.349757
0.301301
0.266988
0.243609
0.227954
0.205221
0.17394
0.0314551
0.0382994
0.0484797
0.628034
0.1082
0.10012
0.106818
0.116197
0.121315
0.119361
0.10071
0.0662826
1.40501
0.447739
0.263929
0.128459
0.119386
0.1219
0.121753
0.118496
0.107232
0.101273
0.0867828
0.0594093
0.0475315
2.28031
0.157291
0.146648
0.117525
0.116439
0.126517
0.133261
0.135368
0.133421
0.127851
0.122378
0.108712
0.0943027
0.0537848
0.031217
5.62398
0.136979
0.109791
0.105022
0.109621
0.12076
0.135906
0.149275
0.156668
0.155794
0.150421
0.146151
0.145382
0.129747
0.10976
0.0510992
1.51727
0.13081
0.105024
0.105277
0.118329
0.139977
0.164585
0.182023
0.186863
0.185119
0.181441
0.18074
0.182271
0.175729
0.151056
0.0889124
0.0387473
3.04795
0.571529
0.133227
0.107365
0.115996
0.143495
0.176452
0.202011
0.217843
0.224907
0.225245
0.224833
0.232648
0.240839
0.234317
0.191749
0.112636
0.0721369
0.0294847
1.04818
0.289365
0.135894
0.1212
0.142054
0.178025
0.204988
0.221218
0.238986
0.257988
0.266247
0.273384
0.291976
0.32212
0.334539
0.266069
0.131091
0.0919447
0.0469817
0.450255
0.175064
0.132982
0.146885
0.173729
0.202978
0.217184
0.232652
0.25857
0.275617
0.267797
0.263235
0.298671
0.376034
0.445903
0.369578
0.159905
0.0955852
0.0668603
2.21346
0.218754
0.149065
0.145423
0.175382
0.196259
0.214095
0.224863
0.242985
0.261701
0.254824
0.222238
0.221263
0.273741
0.428305
0.564258
0.509852
0.187249
0.0958253
0.0759228
3.04288
0.13695
0.141141
0.163267
0.191207
0.204001
0.217402
0.228947
0.241853
0.241881
0.208088
0.172115
0.181326
0.304529
0.526442
0.713405
0.645036
0.208948
0.0956437
0.0678093
4.38617
0.109072
0.136573
0.171124
0.192688
0.202511
0.214816
0.224434
0.229168
0.212876
0.166078
0.137858
0.185154
0.351742
0.560268
0.787162
0.694925
0.219798
0.0924057
0.0504922
0.219431
0.131739
0.164498
0.182545
0.192379
0.203947
0.210658
0.217599
0.186465
0.139842
0.133507
0.200391
0.345866
0.521846
0.767494
0.678402
0.324186
0.0851503
0.0347397
1.7896
0.139687
0.153766
0.16931
0.178785
0.190449
0.212924
0.215121
0.169287
0.137469
0.144031
0.213669
0.35819
0.499145
0.67267
0.572759
0.275416
0.0760898
0.0321856
3.30504
0.403718
0.157172
0.16822
0.178454
0.199977
0.238151
0.227875
0.179173
0.16039
0.187413
0.273814
0.403981
0.499679
0.593873
0.555224
0.181271
0.0630185
1.19167
0.404943
0.201429
0.172442
0.219079
0.292519
0.295727
0.259348
0.258077
0.296541
0.37161
0.459886
0.501271
0.497592
0.421456
0.11647
0.0401384
1.47773
0.607541
0.297975
0.15905
0.171175
0.282087
0.381932
0.39984
0.412552
0.445905
0.479733
0.508115
0.488447
0.442251
0.236688
0.0644612
0.94502
0.391182
0.184819
0.141772
0.176768
0.270003
0.372595
0.448848
0.522714
0.504754
0.477908
0.406386
0.258395
0.105827
0.327927
0.20434
0.198134
0.243201
0.28452
0.3232
0.34577
0.346686
0.294623
0.200106
0.128362
0.330744
0.292599
0.248632
0.218958
0.205989
0.190765
0.171777
0.149267
0.0326925
0.0315018
0.0392947
0.585758
0.129007
0.106017
0.126593
0.135166
0.142956
0.143217
0.124378
0.0931985
1.74145
0.46688
0.288484
0.143549
0.129209
0.125513
0.125507
0.125259
0.11882
0.11576
0.109844
0.100864
0.0878808
2.97975
0.205654
0.183545
0.128867
0.115073
0.117278
0.124112
0.132713
0.136591
0.134869
0.129866
0.116563
0.108802
0.0772148
0.0590371
9.13389
0.177401
0.131738
0.109482
0.106615
0.111322
0.125409
0.142253
0.154991
0.157853
0.154961
0.150744
0.147158
0.132998
0.120763
0.0627505
1.33597
0.155881
0.109144
0.102515
0.11307
0.136043
0.163195
0.182653
0.186496
0.184727
0.18322
0.181796
0.17986
0.171768
0.150991
0.0985411
0.0404018
4.30447
0.532408
0.141887
0.111286
0.119997
0.150512
0.186914
0.211661
0.219662
0.217718
0.218399
0.225553
0.233353
0.234335
0.220629
0.181437
0.119396
0.0765041
0.0234562
2.67293
0.320852
0.147297
0.137677
0.165646
0.202471
0.223904
0.227754
0.230146
0.247465
0.276172
0.299026
0.317433
0.327263
0.307505
0.235875
0.135964
0.0952482
0.0404021
0.702981
0.196421
0.166529
0.180435
0.210932
0.230523
0.233375
0.236308
0.258596
0.302191
0.347713
0.386833
0.421584
0.445682
0.431582
0.322072
0.160122
0.0954428
0.0624577
3.54598
0.328729
0.187414
0.1898
0.210801
0.232025
0.241587
0.246602
0.262372
0.29579
0.336137
0.364608
0.386108
0.450175
0.552864
0.583908
0.444704
0.181432
0.0941346
0.0743346
4.25004
0.195793
0.189897
0.204346
0.224384
0.24159
0.253393
0.26417
0.280145
0.302107
0.311631
0.303954
0.324238
0.431529
0.605287
0.735406
0.583737
0.204437
0.0940944
0.0669503
5.32122
0.153517
0.191185
0.207841
0.227999
0.246911
0.261593
0.270468
0.277567
0.281134
0.259301
0.236078
0.271748
0.403927
0.584589
0.800872
0.672416
0.221575
0.0966283
0.0515853
0.162648
0.181326
0.200437
0.220549
0.241206
0.255989
0.260706
0.264967
0.25797
0.218239
0.197482
0.248938
0.384243
0.538049
0.762295
0.678009
0.326752
0.0949266
0.0355953
1.13344
0.1558
0.189388
0.207286
0.22424
0.237159
0.249797
0.268452
0.254316
0.213147
0.20381
0.263727
0.39385
0.509701
0.69786
0.588902
0.285775
0.0855725
0.0265978
3.41814
0.216761
0.179243
0.197436
0.209848
0.224636
0.257271
0.295339
0.294838
0.271887
0.273849
0.339228
0.438819
0.513849
0.641356
0.595257
0.19016
0.0680329
1.12097
0.271064
0.181609
0.178004
0.211983
0.274859
0.34764
0.385956
0.383412
0.391874
0.436225
0.493926
0.525622
0.540929
0.443722
0.119704
0.0374612
1.52358
0.557905
0.236631
0.143069
0.153444
0.233932
0.359624
0.461549
0.501763
0.519169
0.529638
0.5445
0.520837
0.488462
0.231813
0.0617844
0.975086
0.37602
0.160424
0.121922
0.146663
0.215911
0.373334
0.526029
0.620836
0.599595
0.547573
0.441337
0.264242
0.0947185
0.285027
0.149145
0.12044
0.165549
0.225655
0.284901
0.322736
0.325569
0.277782
0.192549
0.103816
0.246648
0.196813
0.200587
0.170725
0.173329
0.16646
0.146446
0.140145
0.0309813
0.0272866
0.0294945
0.516248
0.143333
0.0888626
0.109188
0.139534
0.147997
0.143689
0.115869
0.0961647
1.93807
0.528981
0.305499
0.141553
0.138499
0.135923
0.129662
0.127653
0.125104
0.123278
0.119755
0.129291
0.131894
3.05209
0.303923
0.243621
0.135598
0.122606
0.120973
0.119768
0.128162
0.134814
0.135113
0.130661
0.118843
0.11206
0.104625
0.116987
8.2713
0.315076
0.219791
0.128319
0.112538
0.115608
0.125279
0.140009
0.153314
0.1561
0.152214
0.146964
0.140874
0.12676
0.118886
0.0798701
1.29527
0.240607
0.144272
0.115246
0.121666
0.146505
0.172083
0.190954
0.191605
0.182
0.174615
0.169819
0.164686
0.155541
0.137401
0.0961244
0.0502533
7.00835
0.362011
0.188844
0.150275
0.14838
0.179847
0.215838
0.234932
0.234172
0.216952
0.204375
0.204772
0.207785
0.2049
0.190126
0.158874
0.112205
0.0671734
0.030142
4.58602
0.37618
0.205314
0.197613
0.218608
0.246435
0.25633
0.244933
0.226903
0.222224
0.238898
0.261129
0.277643
0.278543
0.253603
0.196171
0.130381
0.0785112
0.0462385
1.78521
0.258203
0.23042
0.24347
0.260785
0.267112
0.25682
0.243929
0.247688
0.27864
0.325004
0.363419
0.385141
0.392766
0.359131
0.257103
0.151841
0.0832925
0.0710794
5.97031
0.610282
0.246352
0.247205
0.26632
0.279083
0.281491
0.278975
0.286081
0.312789
0.358238
0.41215
0.459626
0.497745
0.518801
0.508827
0.352345
0.166534
0.0924431
0.0740511
6.53448
0.282541
0.245962
0.259705
0.283803
0.301638
0.31117
0.317062
0.327977
0.350208
0.384124
0.414962
0.450839
0.509022
0.588383
0.665542
0.47571
0.183983
0.0995323
0.0651587
7.14958
0.206496
0.243445
0.264854
0.294889
0.319253
0.333818
0.339368
0.342818
0.352599
0.357086
0.35782
0.39656
0.4776
0.567006
0.732891
0.576901
0.202152
0.105919
0.0524207
0.201251
0.222088
0.255001
0.28812
0.316317
0.332349
0.337314
0.340248
0.345157
0.33102
0.319477
0.363829
0.449117
0.536005
0.721142
0.603292
0.290791
0.108011
0.0352545
1.12183
0.186693
0.234147
0.263963
0.288825
0.305795
0.319414
0.341571
0.359619
0.35047
0.345808
0.390105
0.454627
0.5216
0.689583
0.539457
0.267216
0.0954821
0.0252027
3.58548
0.184405
0.203637
0.232639
0.251798
0.270751
0.300013
0.348059
0.39385
0.413582
0.426465
0.457619
0.4933
0.530589
0.654917
0.570397
0.182675
0.071745
1.1271
0.191646
0.189646
0.197886
0.228001
0.27636
0.343101
0.41296
0.461834
0.48632
0.510226
0.528826
0.540934
0.566178
0.403381
0.114524
0.0342753
1.57649
0.602991
0.229873
0.144119
0.15108
0.205492
0.297892
0.401787
0.492064
0.546955
0.562261
0.559389
0.534493
0.49763
0.195972
0.0549941
1.00991
0.370515
0.149604
0.114
0.132454
0.178186
0.312306
0.493464
0.60917
0.618151
0.561773
0.427865
0.225404
0.0762121
0.269335
0.124914
0.0945016
0.121093
0.191202
0.216764
0.243054
0.259467
0.22953
0.158005
0.0730604
0.209985
0.112294
0.159059
0.137661
0.135907
0.143357
0.128153
0.131409
0.0195314
0.0146436
0.0160116
0.507313
0.0809253
0.0562547
0.0600301
0.0890384
0.115966
0.113149
0.0853433
0.0811847
1.49026
0.687198
0.237886
0.0978527
0.112495
0.129879
0.129063
0.122785
0.122417
0.121467
0.120054
0.137014
0.163788
2.88846
0.418804
0.254165
0.109365
0.104101
0.115217
0.115559
0.120077
0.127527
0.128264
0.123398
0.113869
0.105538
0.108602
0.166844
6.19342
0.433969
0.273785
0.127261
0.102193
0.115113
0.128587
0.139636
0.151994
0.15412
0.147144
0.137946
0.128576
0.114833
0.106828
0.0928045
1.36441
0.27012
0.174057
0.134165
0.141333
0.170605
0.191917
0.20595
0.20368
0.186041
0.168672
0.156418
0.145912
0.132312
0.112269
0.0839889
0.0661029
8.39841
0.30316
0.245438
0.21548
0.212911
0.238962
0.264786
0.271871
0.261469
0.230397
0.200445
0.186541
0.180721
0.172995
0.155549
0.125108
0.0863317
0.0423099
0.0434549
6.21527
0.323876
0.281641
0.281545
0.294973
0.305103
0.296877
0.270784
0.236696
0.211761
0.209904
0.218982
0.226491
0.222219
0.196848
0.148915
0.101989
0.0331124
0.0437606
3.1203
0.331668
0.303411
0.312996
0.319685
0.309682
0.285097
0.257642
0.242983
0.250618
0.271067
0.294386
0.312455
0.312224
0.27222
0.185413
0.12216
0.0324712
0.0478951
7.99502
1.12201
0.319304
0.316267
0.33422
0.343012
0.33497
0.320672
0.315423
0.328527
0.35434
0.38335
0.401739
0.416736
0.436161
0.397735
0.245277
0.139243
0.0476237
0.0381908
8.14188
0.458683
0.316992
0.33269
0.362979
0.382428
0.384181
0.377823
0.376517
0.386209
0.403883
0.428712
0.45143
0.46841
0.521922
0.549468
0.332246
0.155089
0.0748366
0.0296971
7.81499
0.318819
0.312314
0.339591
0.379642
0.408051
0.415786
0.410025
0.402213
0.399916
0.402078
0.41334
0.440176
0.463685
0.52576
0.634223
0.421063
0.170814
0.101626
0.0247261
0.368876
0.283796
0.327929
0.371706
0.404662
0.41702
0.416528
0.4113
0.411704
0.409196
0.409921
0.434146
0.459511
0.516393
0.64473
0.463307
0.227823
0.113923
0.0206294
1.38064
0.247398
0.303594
0.338155
0.36792
0.385922
0.397361
0.41171
0.431188
0.441217
0.446689
0.464748
0.475545
0.513737
0.635565
0.42594
0.222399
0.0954811
0.021507
3.57493
0.224368
0.26112
0.287695
0.311469
0.33415
0.358353
0.391149
0.430574
0.46304
0.484791
0.498813
0.496724
0.517871
0.608527
0.472623
0.161251
0.0695532
1.20238
0.250121
0.225191
0.233937
0.264315
0.302774
0.346436
0.39509
0.441899
0.47743
0.500181
0.501303
0.517142
0.542891
0.314726
0.103279
0.0300463
1.51037
0.619727
0.243828
0.155502
0.166381
0.207833
0.268939
0.340328
0.41676
0.479858
0.510393
0.50677
0.493917
0.436965
0.15336
0.0470468
1.03736
0.316066
0.137981
0.122743
0.147231
0.186352
0.271719
0.417098
0.526312
0.553968
0.516415
0.384344
0.176134
0.0610183
0.236169
0.108796
0.0968295
0.129541
0.215155
0.245019
0.24181
0.246041
0.206888
0.129701
0.0546012
0.209449
0.116091
0.130519
0.123487
0.108815
0.119441
0.106798
0.0971279
0.00925288
0.00748867
0.00882903
0.528299
0.0458751
0.0301769
0.0289535
0.0410574
0.0632292
0.0693267
0.0528094
0.0602859
0.991011
0.670436
0.154285
0.0568812
0.0769785
0.0969818
0.11258
0.111104
0.112155
0.111417
0.111481
0.130108
0.167292
2.21372
0.569049
0.267224
0.0810705
0.0807284
0.0944909
0.103277
0.110234
0.117848
0.117664
0.11063
0.100495
0.0925481
0.0992964
0.1902
4.48141
0.565444
0.300591
0.133289
0.103528
0.117741
0.130683
0.139631
0.149847
0.15215
0.142447
0.128063
0.113599
0.0983528
0.0907521
0.0924802
1.59531
0.338116
0.236285
0.198393
0.198814
0.211939
0.218597
0.223899
0.219921
0.197501
0.171331
0.149442
0.130959
0.111533
0.0897318
0.0735063
0.0856113
7.33362
0.386188
0.330877
0.312781
0.316322
0.32419
0.324757
0.315093
0.295236
0.255454
0.212281
0.183591
0.165939
0.150955
0.129788
0.0990784
0.0620083
0.036038
0.0628175
6.14456
0.383377
0.363623
0.361285
0.367605
0.359351
0.334218
0.297106
0.254226
0.218689
0.200089
0.191829
0.186754
0.176934
0.153315
0.116027
0.0701868
0.0210696
0.0372485
4.24297
0.421257
0.37979
0.379462
0.375809
0.351983
0.313362
0.273887
0.246215
0.238094
0.239488
0.241761
0.242635
0.23278
0.193484
0.135068
0.0876656
0.0189911
0.0267136
7.64303
2.10754
0.410241
0.393854
0.410139
0.414625
0.39593
0.365575
0.344527
0.342973
0.348043
0.346962
0.33913
0.337735
0.335706
0.273961
0.166017
0.110966
0.0273961
0.014612
8.31162
0.971771
0.397357
0.412045
0.44624
0.464463
0.457223
0.434491
0.417225
0.41756
0.426778
0.430951
0.422079
0.414577
0.445516
0.39612
0.213292
0.132229
0.0530617
0.0099465
7.92944
0.573137
0.395461
0.424961
0.468941
0.496905
0.496977
0.474956
0.449573
0.433089
0.427015
0.432422
0.437809
0.438063
0.482159
0.503718
0.270516
0.142607
0.0869955
0.0127081
0.481046
0.377745
0.423093
0.468365
0.502524
0.510746
0.496705
0.473489
0.45418
0.442624
0.440221
0.444028
0.445554
0.487572
0.536396
0.313604
0.170567
0.0968864
0.0151497
0.978423
0.361858
0.394023
0.433372
0.471578
0.491144
0.490237
0.479496
0.473154
0.469484
0.466349
0.462118
0.454317
0.486488
0.536352
0.301463
0.173226
0.0806785
0.0158567
2.71005
0.435283
0.339515
0.35946
0.397334
0.427386
0.443675
0.451165
0.458024
0.465158
0.468312
0.462882
0.451676
0.482051
0.498308
0.342739
0.13447
0.0596404
1.14167
0.365881
0.277829
0.29922
0.336369
0.369174
0.391582
0.408079
0.423312
0.435568
0.441513
0.439104
0.474735
0.472074
0.225054
0.0883798
0.0238932
1.47629
0.497418
0.218785
0.202063
0.226696
0.26429
0.302255
0.338517
0.377949
0.418335
0.442176
0.445278
0.443943
0.343089
0.120372
0.0388165
1.08025
0.25171
0.161475
0.17486
0.209634
0.240724
0.284788
0.373169
0.465611
0.493761
0.477281
0.344802
0.140067
0.0502792
0.226438
0.130353
0.141776
0.185164
0.257265
0.371808
0.390744
0.357554
0.238142
0.120516
0.0456961
0.25446
0.154541
0.159625
0.22416
0.189135
0.164377
0.118364
0.0715178
0.00455228
0.00596641
0.00790307
0.51777
0.0397274
0.0124376
0.0128654
0.0177128
0.0263256
0.0311704
0.0263265
0.0351959
0.910187
0.606647
0.125019
0.0345273
0.0503039
0.060606
0.0745919
0.0888412
0.094492
0.0960067
0.0953321
0.102949
0.132237
1.53821
0.466753
0.241814
0.085889
0.0764201
0.0783867
0.0865748
0.0983876
0.109717
0.109512
0.0998801
0.0852786
0.0766657
0.0853318
0.180719
2.83964
0.545818
0.33438
0.205922
0.164077
0.15164
0.141383
0.140449
0.147494
0.15176
0.141021
0.122365
0.102031
0.0815083
0.0727992
0.0772603
1.48894
0.445179
0.351226
0.324893
0.300929
0.275055
0.253727
0.24519
0.238391
0.214191
0.182567
0.15256
0.125751
0.0998436
0.0764101
0.0619866
0.0832337
5.09522
0.48925
0.435007
0.412882
0.41456
0.4051
0.383163
0.358388
0.330628
0.286054
0.236016
0.196833
0.168892
0.146774
0.122074
0.0909933
0.0562522
0.032768
0.0601809
3.12152
0.453264
0.443542
0.425532
0.417452
0.395787
0.360612
0.318399
0.273267
0.234101
0.204614
0.183702
0.169163
0.156327
0.138475
0.111603
0.0677735
0.0234096
0.0224484
3.0858
0.493275
0.457178
0.446019
0.430289
0.392775
0.340922
0.290178
0.253306
0.233695
0.217853
0.20362
0.191449
0.176283
0.150533
0.122562
0.087387
0.0301294
0.00981915
6.6886
2.43954
0.493353
0.478228
0.488743
0.485516
0.454625
0.407948
0.367693
0.346228
0.331257
0.310971
0.283682
0.261949
0.236894
0.184106
0.133682
0.105666
0.0413406
0.00661522
7.83135
1.2612
0.494869
0.504978
0.533145
0.54364
0.523915
0.483892
0.447741
0.435074
0.436042
0.426623
0.390558
0.3588
0.337462
0.251804
0.150874
0.117495
0.0490638
0.0123152
7.04534
0.747573
0.502539
0.526719
0.566063
0.588562
0.577377
0.536672
0.489522
0.459704
0.45277
0.45607
0.441194
0.417326
0.420792
0.339866
0.176395
0.120665
0.069378
0.00685749
0.670249
0.486839
0.5266
0.576709
0.612051
0.611301
0.57763
0.529403
0.48818
0.464651
0.457087
0.446998
0.432901
0.447464
0.396901
0.202486
0.13276
0.0738152
0.0114573
1.8412
0.457991
0.48976
0.55006
0.596839
0.612687
0.594459
0.555961
0.515933
0.487304
0.468276
0.44904
0.433426
0.454348
0.401642
0.20671
0.134563
0.0623447
0.0116065
2.10902
0.613714
0.425886
0.469627
0.52163
0.558064
0.56306
0.542219
0.512314
0.485807
0.463138
0.440446
0.424675
0.453212
0.373097
0.235379
0.109778
0.0476113
0.879309
0.348752
0.370872
0.415041
0.454116
0.479092
0.482587
0.470859
0.454279
0.438291
0.424091
0.416564
0.441313
0.381064
0.161671
0.0734224
0.0184813
1.58133
0.341877
0.263268
0.29961
0.33192
0.366979
0.389154
0.399401
0.405335
0.414162
0.4197
0.425822
0.418288
0.2552
0.0978164
0.0316627
1.15453
0.249474
0.228523
0.257758
0.299766
0.314195
0.33795
0.377344
0.431966
0.452015
0.444347
0.308179
0.117232
0.0422888
0.306127
0.169513
0.183342
0.239207
0.305105
0.395464
0.477855
0.466299
0.29035
0.121446
0.0400175
0.431329
0.190823
0.203761
0.289848
0.360159
0.333132
0.187512
0.0622864
0.00179595
0.00290227
0.00492529
0.619226
0.0825839
0.00595339
0.00503829
0.00680692
0.00918549
0.0098692
0.0101512
0.0171073
0.949067
0.613972
0.124991
0.0362455
0.0375524
0.0352309
0.0387404
0.0494421
0.0620714
0.069765
0.065415
0.0548237
0.0717619
1.10827
0.449722
0.271321
0.163577
0.122032
0.0899601
0.079221
0.0859582
0.101638
0.106306
0.0967314
0.0767552
0.0641168
0.0652228
0.11974
1.84001
0.573039
0.418193
0.3381
0.283353
0.225717
0.173955
0.1495
0.14758
0.153935
0.145883
0.126709
0.10201
0.0710383
0.0566869
0.0534668
0.98598
0.552645
0.461072
0.438287
0.400907
0.347654
0.300601
0.274087
0.26009
0.236486
0.202682
0.168286
0.136002
0.103196
0.068927
0.0442532
0.0513979
3.37024
0.645096
0.539603
0.485393
0.471931
0.456647
0.429781
0.399042
0.366086
0.3205
0.268668
0.223512
0.188124
0.160226
0.133196
0.101963
0.055874
0.0233063
0.025886
2.48858
0.635528
0.531783
0.483147
0.45439
0.421338
0.380709
0.337157
0.293242
0.254354
0.219795
0.192129
0.172546
0.159652
0.148238
0.129562
0.0937355
0.0364391
0.0114413
1.67025
0.601463
0.544323
0.517395
0.487169
0.436935
0.372066
0.309595
0.264465
0.231981
0.204925
0.181828
0.164513
0.151951
0.141574
0.133692
0.114804
0.0841118
0.0132443
5.45406
1.68119
0.584406
0.571704
0.571312
0.554561
0.509678
0.444812
0.381849
0.335063
0.300217
0.264495
0.227424
0.196972
0.170556
0.142906
0.127295
0.109592
0.0890112
0.0616443
5.24234
1.28415
0.59364
0.603022
0.622328
0.620013
0.585058
0.524805
0.463899
0.427146
0.40999
0.378882
0.324461
0.274312
0.226432
0.165505
0.127503
0.101656
0.0499512
0.0460711
4.23454
1.19933
0.613584
0.629466
0.664169
0.676608
0.650608
0.589716
0.515044
0.467495
0.458019
0.452335
0.412979
0.363111
0.308567
0.208335
0.134712
0.101023
0.0479303
0.00646174
1.28909
0.62061
0.642856
0.689236
0.718341
0.702482
0.643573
0.565242
0.502851
0.472672
0.461346
0.437994
0.405689
0.372674
0.256296
0.144417
0.110141
0.0527187
0.00843397
1.43684
0.682744
0.627163
0.679919
0.723819
0.726668
0.68253
0.612338
0.544926
0.498313
0.468878
0.440158
0.415562
0.398691
0.273636
0.149924
0.107838
0.0461184
0.00865448
1.98935
0.572789
0.574201
0.608593
0.668178
0.697445
0.682189
0.632519
0.571884
0.518061
0.475934
0.440308
0.417182
0.402302
0.262807
0.166187
0.089817
0.0368037
0.599781
0.429521
0.501761
0.54209
0.589668
0.611639
0.59813
0.560777
0.516788
0.475483
0.440697
0.422231
0.385397
0.285366
0.124282
0.060271
0.0146943
1.64523
0.345216
0.34519
0.374825
0.433868
0.487225
0.510348
0.505754
0.48617
0.463999
0.441707
0.428735
0.382888
0.189338
0.0818472
0.0260052
0.914626
0.268957
0.255253
0.312553
0.388567
0.446407
0.457146
0.457302
0.462104
0.456856
0.435186
0.263022
0.0999849
0.0356001
0.270521
0.200549
0.212021
0.318231
0.407999
0.452978
0.486213
0.487736
0.317867
0.118279
0.0352419
0.683949
0.528231
0.388934
0.439762
0.493616
0.507431
0.215459
0.0546849
0.00224652
0.00105264
0.00156755
0.889939
0.133942
0.0176085
0.006733
0.00383786
0.00334807
0.00326736
0.00441708
0.0108076
1.02647
0.697011
0.188164
0.100322
0.067456
0.0442222
0.0299299
0.0264173
0.0240805
0.0321449
0.0284377
0.0191725
0.0289209
0.97293
0.542264
0.376986
0.293265
0.225896
0.153084
0.103493
0.084322
0.089505
0.102548
0.0984011
0.0729922
0.0498736
0.0325101
0.0403332
1.30363
0.644808
0.509668
0.449438
0.396043
0.314524
0.234182
0.180004
0.15793
0.15884
0.158186
0.14571
0.123953
0.0817643
0.0497945
0.0259284
0.732081
0.630716
0.531241
0.503189
0.470618
0.418783
0.362245
0.317584
0.288971
0.264723