/*--------------------------------*- C++ -*----------------------------------*\
| =========                 |                                                 |
| \\      /  F ield         | OpenFOAM: The Open Source CFD Toolbox           |
|  \\    /   O peration     | Version:  2406                                  |
|   \\  /    A nd           | Website:  www.openfoam.com                      |
|    \\/     M anipulation  |                                                 |
\*---------------------------------------------------------------------------*/
FoamFile
{
    version     2.0;
    format      ascii;
    arch        "LSB;label=32;scalar=64";
    class       volScalarField;
    location    "150";
    object      nut;
}
// * * * * * * * * * * * * * * * * * * * * * * * * * * * * * * * * * * * * * //

dimensions      [0 2 -1 0 0 0 0];

internalField   nonuniform List<scalar> 
238188
(
0.00544521
0.00122564
0.00159415
0.00730982
0.00117965
0.00145101
0.0013309
0.00256831
0.0148939
0.00113489
0.00157861
0.00140809
0.00207162
0.0022834
0.00446665
0.00134181
0.00205483
0.00323918
0.00414074
0.0396674
0.00712862
0.0173652
0.0089536
0.00447615
0.00590707
0.0060255
0.0122384
0.00467559
0.00385297
0.00437166
0.00469461
0.0459387
0.0137271
0.00375841
0.00354958
0.0434623
0.00841608
0.0102436
0.00187752
0.00194805
0.0150647
0.0282926
0.050292
0.036242
0.00453726
0.00672037
0.00793917
0.00465873
0.00275398
0.0227607
0.0521662
0.0719214
0.0741338
0.072106
0.062479
0.0244514
0.0232838
0.0200216
0.0129935
0.0059399
0.00243864
0.00158334
0.0438014
0.0434885
0.0465894
0.0580856
0.0324972
0.0668649
0.0707535
0.031427
0.036386
0.0269431
0.0194344
0.0117294
0.00503278
0.00180191
0.00112706
0.085585
0.102519
0.205217
0.0707042
0.0290361
0.0272717
0.0316995
0.0324742
0.0354016
0.0385645
0.0304773
0.0230903
0.0155848
0.00839865
0.00288793
0.0010056
0.190622
0.200713
0.0415508
0.0156081
0.0159258
0.0186506
0.0184879
0.0161162
0.0515018
0.0370245
0.0291948
0.0211282
0.0131244
0.00731894
0.00357074
0.00159677
0.000882771
0.0690916
0.282166
0.147585
0.0241591
0.0203423
0.0147247
0.0153665
0.0193933
0.056265
0.0557865
0.0344104
0.0254186
0.0164653
0.00848875
0.00542109
0.00404986
0.00287785
0.00135461
0.0012484
0.102637
0.301285
0.154199
0.0770528
0.0718427
0.0270665
0.0252797
0.0151292
0.0894993
0.0555076
0.0336154
0.0228235
0.0127248
0.0077121
0.00693669
0.00626102
0.00521383
0.0035019
0.00129748
0.118632
0.272237
0.180998
0.11614
0.050778
0.033147
0.0146912
0.0762354
0.0809623
0.0524581
0.0333584
0.0196278
0.0104003
0.00640099
0.00612061
0.00702253
0.00712154
0.00563299
0.00169426
0.0524054
0.129828
0.2267
0.198778
0.0852465
0.0182004
0.0203192
0.0413576
0.071092
0.0644437
0.044401
0.0254162
0.0137492
0.00616077
0.00274367
0.0030716
0.00411541
0.0050399
0.00525709
0.00195127
0.0730686
0.138006
0.195553
0.199108
0.0702228
0.020607
0.0320146
0.0464578
0.0513261
0.0345747
0.0188217
0.0106146
0.00651917
0.000913805
0.00103448
0.001221
0.00201548
0.00344122
0.00323459
0.002127
0.040452
0.14544
0.176481
0.199587
0.0749362
0.0192107
0.0281611
0.02743
0.0152294
0.00802002
0.00560381
0.00378518
0.00236821
0.00563681
0.00509145
0.00334332
0.00295347
0.00276776
0.00321749
0.00219241
0.145444
0.158946
0.198532
0.10281
0.010378
0.00753334
0.00604493
0.0035275
0.00250131
0.00338727
0.0126425
0.0432376
0.040706
0.0238961
0.0078629
0.00350246
0.00239685
0.00170591
0.00108423
0.112
0.141885
0.181368
0.145072
0.00584696
0.0123447
0.0241965
0.0394477
0.0580005
0.0911779
0.135358
0.149246
0.133173
0.0896523
0.0256701
0.00536724
0.0025257
0.00125766
0.000809585
0.0754344
0.135474
0.157753
0.17342
0.0214759
0.0474203
0.0840034
0.112977
0.135097
0.151304
0.15951
0.17027
0.166092
0.12786
0.0553799
0.00885606
0.00295345
0.00124473
0.112126
0.132975
0.163325
0.114138
0.0563602
0.0901668
0.120711
0.136538
0.145674
0.144745
0.136821
0.141098
0.111915
0.0543256
0.0102339
0.00324517
0.00145052
0.0895307
0.111466
0.132348
0.11354
0.100064
0.0862308
0.05716
0.0784752
0.0952507
0.100016
0.0829846
0.0572641
0.049824
0.0271886
0.00823799
0.00295202
0.0773523
0.0720954
0.0749309
0.0752709
0.0646039
0.051302
0.0501497
0.0518484
0.0399667
0.022825
0.0159162
0.019735
0.013481
0.00626133
0.050705
0.0405209
0.034469
0.0288245
0.0273158
0.023975
0.0186462
0.013989
0.013947
0.0133436
0.0100312
0.047976
0.0389678
0.0346856
0.0311622
0.0286821
0.0196437
0.0167167
0.0104718
0.00388339
0.00947734
0.0188979
0.0526181
0.0501099
0.0246641
0.0248737
0.0240263
0.0397135
0.0324294
0.0232997
0.0173079
0.0561048
0.075265
0.0606089
0.0431988
0.0367355
0.043148
0.0334007
0.052766
0.0408585
0.0315684
0.0244423
0.0164815
0.0111874
0.0658785
0.0224655
0.0320582
0.0538105
0.0525545
0.0542098
0.0538584
0.0623779
0.0645162
0.0499714
0.0414953
0.0337884
0.0272403
0.0167813
0.00868145
0.157385
0.0765875
0.0605016
0.0400652
0.0205173
0.0217487
0.0660773
0.0668934
0.0827376
0.0700959
0.0567357
0.048087
0.0416202
0.0349051
0.0249013
0.0136297
0.0518539
0.0378872
0.0346924
0.0272331
0.0165798
0.0630931
0.0900087
0.100837
0.094679
0.0755911
0.0595501
0.0491479
0.0422462
0.0354619
0.0281252
0.0189071
0.00799558
0.0724184
0.038357
0.0286705
0.0305131
0.0304905
0.0263
0.0218025
0.0992094
0.126551
0.107304
0.076856
0.0530022
0.0399547
0.033781
0.0301469
0.0265995
0.0212706
0.0122311
0.00391336
0.0548278
0.0564074
0.04274
0.0414271
0.0360066
0.0232688
0.045408
0.139354
0.143226
0.109725
0.0650817
0.0413697
0.0312914
0.0251184
0.026187
0.0272473
0.0220669
0.0143425
0.00553377
0.0799717
0.0916354
0.0652956
0.0471971
0.0222107
0.0390066
0.109411
0.15614
0.144405
0.0981468
0.0514697
0.0320488
0.016549
0.010054
0.0148707
0.0230049
0.022108
0.0144832
0.00874961
0.0993261
0.0952827
0.121186
0.0967917
0.0306033
0.0363371
0.0979498
0.143448
0.154462
0.132855
0.0828953
0.0407642
0.022541
0.00707629
0.00625927
0.00986611
0.0144765
0.019419
0.014543
0.00939717
0.122669
0.0981095
0.129514
0.115574
0.0248951
0.0764234
0.125456
0.143119
0.13687
0.105852
0.057156
0.0259067
0.0122044
0.00863339
0.0205045
0.0220909
0.0179382
0.0174449
0.0137765
0.00884399
0.154824
0.102815
0.132699
0.123472
0.0234355
0.0924894
0.122371
0.118835
0.0856007
0.0444779
0.020648
0.0117252
0.0173829
0.0739485
0.084361
0.0734688
0.0385168
0.0221248
0.0139914
0.00679946
0.113519
0.13022
0.130194
0.020627
0.0833898
0.095845
0.0659838
0.0281216
0.0137422
0.0121357
0.0247578
0.115747
0.181616
0.192059
0.172375
0.0785825
0.0301068
0.0142092
0.0055429
0.134209
0.127716
0.135706
0.030494
0.0509768
0.0623793
0.0334678
0.0289423
0.0423197
0.0688469
0.124399
0.204263
0.238573
0.253228
0.216512
0.112378
0.0350869
0.0129288
0.00485254
0.149947
0.127842
0.134342
0.0470018
0.0337842
0.04734
0.0421828
0.0653608
0.0964868
0.13453
0.185867
0.246855
0.282732
0.272679
0.212224
0.106588
0.0294963
0.0105261
0.127871
0.127667
0.0615014
0.0239414
0.0460065
0.0555941
0.0872046
0.12205
0.161705
0.214955
0.254468
0.25444
0.223376
0.162639
0.0686857
0.0175254
0.00562302
0.11866
0.114646
0.0693629
0.0311144
0.0383146
0.051573
0.0802354
0.112441
0.147983
0.183741
0.191334
0.169591
0.130866
0.0727784
0.0276801
0.00856687
0.0929441
0.0672164
0.0471586
0.045136
0.0456192
0.0494428
0.06025
0.0759735
0.0886394
0.0910364
0.0701144
0.0450368
0.0233482
0.0102472
0.0414042
0.0391017
0.0384967
0.0370439
0.0370122
0.0400853
0.0406132
0.0350729
0.0283635
0.022089
0.0120453
0.0282178
0.0309455
0.0320172
0.0311537
0.0299245
0.0288035
0.0259158
0.0220007
0.0103915
0.0210104
0.0283904
0.0568013
0.0217051
0.0317171
0.0392842
0.0658662
0.0664424
0.0565685
0.0383236
0.0228378
0.0585842
0.0739156
0.0467548
0.0443284
0.054041
0.063998
0.0889803
0.0802681
0.0648257
0.0517845
0.0363648
0.0212531
0.0136497
0.0567816
0.0521283
0.0518583
0.0648803
0.0812853
0.0939476
0.10485
0.100595
0.087908
0.076499
0.0675382
0.0516048
0.040936
0.0248119
0.0132877
0.100309
0.0438388
0.0153985
0.032219
0.0877175
0.109207
0.118425
0.12042
0.112467
0.100076
0.0878938
0.078258
0.0717869
0.0568825
0.0458315
0.0250315
0.0530267
0.0239318
0.0299297
0.059886
0.088944
0.124323
0.1364
0.13921
0.132301
0.117558
0.102071
0.0906641
0.0838108
0.0759924
0.0629321
0.0384398
0.0210324
0.0759304
0.0417153
0.0271191
0.0183095
0.0721121
0.119947
0.147956
0.158522
0.161546
0.153255
0.134369
0.115142
0.100988
0.0954716
0.0920236
0.0780887
0.0482511
0.0325932
0.0133487
0.0490314
0.0429086
0.0300125
0.0205169
0.0969819
0.143005
0.165289
0.175204
0.177295
0.16397
0.134663
0.106571
0.0928589
0.0982355
0.111424
0.0995723
0.0594555
0.0383023
0.0198821
0.0459453
0.0307467
0.0237702
0.0365752
0.125995
0.161576
0.178126
0.185916
0.182697
0.156104
0.112098
0.0860152
0.0759456
0.0945274
0.126795
0.120984
0.0701407
0.0419371
0.0272891
0.0799187
0.0323726
0.0248341
0.0229566
0.0705367
0.149982
0.175684
0.187202
0.189785
0.174491
0.131265
0.08276
0.0530423
0.0506688
0.0931091
0.144511
0.146911
0.0755709
0.0444931
0.0282067
0.10391
0.0244684
0.0235249
0.0174242
0.0965307
0.163207
0.182729
0.190102
0.184323
0.153626
0.0990447
0.0536215
0.038226
0.0679798
0.1313
0.186449
0.175834
0.0756145
0.0419703
0.0212901
0.142069
0.0219736
0.0288152
0.0189367
0.0972997
0.165646
0.181199
0.181028
0.154737
0.107659
0.0618226
0.0397224
0.0613029
0.156052
0.227466
0.266682
0.197656
0.074294
0.0340941
0.0121957
0.0320009
0.0292787
0.0190185
0.0645925
0.15539
0.167716
0.143307
0.101893
0.0650862
0.0443329
0.0496777
0.109349
0.202306
0.270477
0.322621
0.206245
0.101521
0.0270161
0.00609395
0.0774429
0.0343781
0.0182572
0.0413987
0.123666
0.142573
0.109968
0.076201
0.0572832
0.0564059
0.0761276
0.148088
0.23789
0.309008
0.307434
0.186391
0.0875372
0.0202362
0.00482822
0.1358
0.0524335
0.0293361
0.027852
0.0969356
0.130424
0.104944
0.0731087
0.063979
0.0726185
0.110267
0.203209
0.293275
0.322294
0.27122
0.1896
0.051289
0.0144554
0.0831981
0.0566412
0.0242137
0.0512795
0.114057
0.113534
0.0897446
0.0923471
0.120328
0.179414
0.260777
0.301301
0.280194
0.239052
0.120822
0.0277603
0.00579726
0.0772526
0.0602219
0.0392809
0.0268186
0.0507553
0.0926928
0.109956
0.132504
0.169075
0.217066
0.245617
0.226143
0.2075
0.143365
0.0516923
0.010683
0.0572147
0.0390224
0.0261809
0.0276924
0.0483725
0.0622396
0.0827309
0.105403
0.128558
0.124772
0.114835
0.0874702
0.0437751
0.0144029
0.0309424
0.0276908
0.0305825
0.0350362
0.0415108
0.0498002
0.0544048
0.0535236
0.0448307
0.0316004
0.0142859
0.0261939
0.0281715
0.0289468
0.0287397
0.0293107
0.0303373
0.0296808
0.0239544
0.0186248
0.0238633
0.0296251
0.0501739
0.0394587
0.0528668
0.072705
0.084259
0.08299
0.0754139
0.0577539
0.0349638
0.0690129
0.0788228
0.0519183
0.0648984
0.0958557
0.100974
0.0996057
0.0933281
0.0807517
0.069994
0.0545568
0.0326594
0.0188065
0.0841294
0.0518316
0.0484116
0.0653512
0.0977752
0.108158
0.111021
0.108688
0.101713
0.0918841
0.0821379
0.0671287
0.0532636
0.0296479
0.0144038
0.138958
0.0293362
0.0509036
0.0697323
0.0859112
0.108303
0.118786
0.124125
0.123155
0.115473
0.105005
0.0953415
0.0879911
0.0726517
0.0575221
0.0267714
0.0767333
0.0474953
0.0704238
0.0822322
0.10273
0.125808
0.141552
0.148023
0.143331
0.133235
0.122385
0.113574
0.106543
0.0957016
0.0773123
0.0443189
0.0189464
0.0926552
0.0468992
0.0373031
0.0726447
0.0957341
0.124495
0.15135
0.166636
0.171221
0.16653
0.155993
0.145154
0.138394
0.132502
0.120756
0.0948033
0.0561064
0.0328921
0.0128613
0.049471
0.0359639
0.0462337
0.0854306
0.11878
0.151367
0.173404
0.183101
0.187064
0.186468
0.178591
0.169642
0.164996
0.165556
0.159786
0.122457
0.0653142
0.0407783
0.0200421
0.0370562
0.0420372
0.0576482
0.111032
0.147612
0.174956
0.188932
0.196619
0.202291
0.198101
0.179136
0.158537
0.15785
0.182255
0.199897
0.157556
0.0753436
0.0424809
0.0272678
0.0793334
0.0299156
0.049429
0.0825617
0.141869
0.173026
0.192763
0.20304
0.209152
0.206815
0.185168
0.145079
0.120213
0.130562
0.193392
0.241739
0.20296
0.08393
0.0423107
0.0292985
0.103198
0.0290138
0.0601371
0.10494
0.16414
0.18936
0.20538
0.213246
0.211658
0.193077
0.150031
0.104732
0.090942
0.14204
0.238981
0.30286
0.245732
0.0890835
0.0404481
0.024738
0.135027
0.0299097
0.0656281
0.113945
0.175541
0.198168
0.211626
0.214039
0.199671
0.161001
0.110708
0.0774277
0.0944691
0.183796
0.284496
0.347306
0.261085
0.0897836
0.0366831
0.0160644
0.0242442
0.0596994
0.108903
0.173435
0.197162
0.207698
0.197197
0.163139
0.119633
0.0804665
0.0691322
0.113312
0.208466
0.306622
0.369568
0.255381
0.12477
0.0309555
0.00741054
0.0875301
0.0249844
0.100152
0.159836
0.186223
0.189969
0.165451
0.133141
0.0959409
0.0733675
0.0782919
0.138354
0.2435
0.325976
0.341766
0.222352
0.106583
0.0251268
0.00416747
0.12782
0.0347977
0.065888
0.12145
0.160345
0.167771
0.155927
0.130208
0.0996774
0.0901883
0.117278
0.197908
0.294605
0.342107
0.301415
0.220931
0.0648469
0.0186254
0.0683146
0.0388642
0.0385053
0.060397
0.116432
0.157416
0.153757
0.140141
0.152718
0.198968
0.271542
0.329167
0.317265
0.274774
0.148783
0.0357219
0.00650961
0.0716346
0.0450329
0.0309504
0.0259655
0.0454994
0.107594
0.155418
0.177591
0.206488
0.247092
0.280878
0.2661
0.250668
0.17818
0.0670383
0.0131258
0.0540563
0.0327329
0.022113
0.0249488
0.0464535
0.0717007
0.106798
0.138213
0.167243
0.170083
0.158573
0.122936
0.061579
0.0183761
0.0240904
0.0191561
0.0217719
0.0298
0.0406644
0.0543173
0.0639011
0.0671596
0.0589625
0.0402452
0.014765
0.0201434
0.0236098
0.023961
0.0259234
0.0278531
0.0293714
0.0291799
0.0201876
0.0209598
0.0190446
0.022668
0.0531453
0.0564884
0.0647947
0.0818935
0.0890614
0.0894326
0.08336
0.0651003
0.0438899
0.0855918
0.0842009
0.0612377
0.0739277
0.102743
0.104929
0.103632
0.0998976
0.0903715
0.0807281
0.0670737
0.0482054
0.0309677
0.11333
0.062616
0.0536228
0.0587521
0.0914133
0.102532
0.107647
0.110456
0.107623
0.100014
0.0901822
0.0748659
0.0611671
0.0383585
0.021342
0.217491
0.0529292
0.0550034
0.0550053
0.0689365
0.0984561
0.11311
0.123205
0.126712
0.121568
0.112127
0.101995
0.0926343
0.0769988
0.0632106
0.0307331
0.0809198
0.0632784
0.059255
0.0650227
0.0891245
0.121672
0.142618
0.152717
0.148664
0.139006
0.129205
0.119732
0.110604
0.0983594
0.0800908
0.0483802
0.0180262
0.130036
0.0559851
0.0726593
0.0700703
0.0880965
0.123292
0.156565
0.173711
0.176478
0.1691
0.159641
0.152978
0.146996
0.138089
0.122649
0.0958469
0.0599006
0.0337752
0.009282
0.099684
0.0450641
0.089217
0.0983416
0.128792
0.163798
0.184923
0.190106
0.188946
0.189594
0.192359
0.191534
0.188274
0.181178
0.161223
0.119762
0.0697567
0.0418658
0.0155334
0.0593539
0.0629966
0.116594
0.14073
0.171092
0.193601
0.202619
0.206061
0.212813
0.223416
0.231013
0.234406
0.23569
0.233017
0.212371
0.153687
0.079864
0.0431535
0.0236398
0.110502
0.0453309
0.0872606
0.149971
0.178034
0.201919
0.21733
0.225842
0.233344
0.240948
0.243926
0.237129
0.226433
0.243077
0.280909
0.274159
0.198448
0.0880004
0.0431053
0.0274956
0.131808
0.0398833
0.116367
0.176676
0.204851
0.226254
0.241874
0.251195
0.253242
0.245953
0.224974
0.197084
0.190058
0.239976
0.323117
0.340937
0.246608
0.0949481
0.0418127
0.0242066
0.155741
0.0449581
0.139475
0.193096
0.222676
0.245482
0.262012
0.266728
0.255072
0.225663
0.185079
0.15365
0.165961
0.246769
0.343589
0.384318
0.2752
0.097826
0.0403735
0.0174651
0.0385457
0.134599
0.19576
0.227772
0.252736
0.268274
0.263881
0.235054
0.193071
0.148738
0.127906
0.163422
0.257944
0.347969
0.388264
0.273899
0.135775
0.0362392
0.00967239
0.0608648
0.0996426
0.184617
0.219835
0.243591
0.254263
0.241328
0.211685
0.174214
0.139796
0.136435
0.187104
0.284083
0.353337
0.36271
0.239074
0.116661
0.0299439
0.00440111
0.131671
0.0269903
0.127298
0.177056
0.21031
0.22267
0.219423
0.21071
0.192963
0.178896
0.192033
0.252735
0.330392
0.365245
0.321154
0.240851
0.0712953
0.0215585
0.0665869
0.0316886
0.0536837
0.0886338
0.142537
0.190953
0.224931
0.241059
0.248582
0.275662
0.324256
0.362575
0.339713
0.296986
0.159071
0.0388085
0.00686291
0.0777977
0.044273
0.0281517
0.0281412
0.0485348
0.106443
0.182005
0.2409
0.274229
0.301852
0.317575
0.292035
0.275173
0.194858
0.0705501
0.0136604
0.0598307
0.0334985
0.021583
0.024859
0.0443683
0.0677477
0.116999
0.165798
0.197936
0.202503
0.185248
0.139448
0.0663566
0.0182343
0.0239233
0.0164495
0.0164281
0.0233128
0.0328486
0.047965
0.0607952
0.0667444
0.0600717
0.0399095
0.0125281
0.0172298
0.0174078
0.0193207
0.0208812
0.0248079
0.0273588
0.0271591
0.0153976
0.0162716
0.0119352
0.0125813
0.0635879
0.049767
0.0615219
0.0683379
0.0825417
0.0868271
0.0814326
0.0609686
0.0446897
0.0988586
0.083114
0.0696221
0.0690686
0.0992177
0.104717
0.104211
0.101537
0.0951178
0.0872492
0.0746912
0.0593292
0.0442076
0.130771
0.0829749
0.0677313
0.0558684
0.086287
0.0984055
0.102861
0.108307
0.108708
0.103017
0.0936455
0.0796231
0.0646531
0.0476905
0.0359792
0.224331
0.0802016
0.0728203
0.0546886
0.0618985
0.0936392
0.110324
0.122688
0.12831
0.124013
0.114196
0.103146
0.0918119
0.0758331
0.0620682
0.0353262
0.0852093
0.0789292
0.0662996
0.0626295
0.0851324
0.124452
0.147699
0.159707
0.155184
0.142044
0.129322
0.117701
0.106213
0.0925803
0.0743465
0.0462021
0.0195232
0.202616
0.0506422
0.100431
0.087481
0.0999888
0.136716
0.171668
0.186481
0.185609
0.172099
0.158042
0.148863
0.140869
0.129756
0.112501
0.0871563
0.0553027
0.0287908
0.00932103
0.164101
0.0547705
0.136745
0.137884
0.161504
0.189725
0.203877
0.200887
0.190721
0.183307
0.182677
0.183296
0.180347
0.169235
0.145315
0.106706
0.0654357
0.033638
0.0153349
0.110591
0.100163
0.175349
0.190014
0.20803
0.220579
0.220948
0.216509
0.217024
0.226103
0.237948
0.243372
0.238867
0.227304
0.195664
0.135524
0.0759975
0.035906
0.024239
0.162664
0.0611204
0.137193
0.209591
0.229889
0.244566
0.25331
0.256809
0.261744
0.27124
0.28315
0.293781
0.300986
0.305706
0.294883
0.264559
0.176468
0.0836836
0.039634
0.0256256
0.181616
0.0480292
0.173683
0.239317
0.265506
0.284359
0.297115
0.304329
0.308232
0.30762
0.303101
0.29458
0.299701
0.334506
0.361186
0.340671
0.225672
0.0908518
0.042142
0.0224695
0.195786
0.0592135
0.199343
0.260084
0.293313
0.318046
0.334784
0.34092
0.333395
0.310385
0.27849
0.256908
0.273918
0.33542
0.379389
0.389218
0.263186
0.0956523
0.0434293
0.0168431
0.0524727
0.187339
0.263531
0.302482
0.33253
0.351093
0.353287
0.333154
0.294707
0.253597
0.233972
0.264781
0.334737
0.383521
0.39265
0.268273
0.133017
0.0410311
0.00924093
0.0634003
0.150753
0.247836
0.288016
0.31811
0.336897
0.33786
0.319832
0.291965
0.264358
0.258849
0.295596
0.353558
0.38901
0.371107
0.235965
0.117116
0.03413
0.00460603
0.139724
0.0316996
0.184274
0.233974
0.267357
0.290425
0.302704
0.309375
0.312981
0.313918
0.325327
0.355699
0.391253
0.392489
0.327856
0.241124
0.0721437
0.0241164
0.0675404
0.0382708
0.10123
0.129579
0.181851
0.232604
0.279239
0.320943
0.35221
0.37429
0.396389
0.397691
0.349147
0.302673
0.150751
0.0389923
0.00733322
0.0811661
0.0475837
0.0292631
0.0311355
0.0533833
0.106768
0.182591
0.257182
0.314871
0.346451
0.3384
0.297487
0.281043
0.192581
0.0637975
0.0133187
0.0610829
0.0323598
0.0206576
0.0255272
0.0460435
0.0699594
0.113235
0.161794
0.193652
0.205148
0.189939
0.138061
0.0602108
0.0161436
0.0224574
0.0146228
0.0150083
0.0231658
0.0306218
0.0364126
0.0456771
0.054572
0.0516069
0.0328098
0.00966953
0.0163836
0.0150063
0.0180898
0.0167941
0.0204523
0.0246231
0.0238526
0.0121912
0.00668668
0.00426469
0.00494922
0.0821077
0.0280362
0.0421412
0.0425538
0.0544515
0.0691931
0.0667287
0.0481968
0.0394203
0.0823893
0.0879514
0.0599718
0.0508611
0.080029
0.0927609
0.0983786
0.0962695
0.0923188
0.0868359
0.0767251
0.0635183
0.0518079
0.143958
0.0836201
0.0719016
0.0476461
0.0737616
0.0889016
0.0949624
0.101609
0.104567
0.100332
0.0913396
0.0796041
0.0647843
0.0509621
0.045654
0.206537
0.0792213
0.0809647
0.0558847
0.0583384
0.0905668
0.10906
0.121675
0.128847
0.124915
0.113665
0.100361
0.086937
0.0714464
0.0568561
0.0381853
0.102112
0.0925257
0.089107
0.078545
0.100447
0.138238
0.159592
0.170043
0.164445
0.146918
0.128867
0.113088
0.0981602
0.081735
0.0623057
0.0393687
0.0219368
0.251937
0.0739966
0.161955
0.144308
0.148917
0.175174
0.19972
0.206756
0.200165
0.179878
0.158231
0.142859
0.130581
0.116529
0.096853
0.0709435
0.0424119
0.0173438
0.0107735
0.228515
0.0916457
0.214291
0.21066
0.218895
0.229303
0.228831
0.215599
0.196069
0.179205
0.171809
0.168183
0.161764
0.147808
0.121851
0.085155
0.0501033
0.0138886
0.0131695
0.165076
0.168434
0.249554
0.256477
0.259659
0.255741
0.243237
0.228125
0.218661
0.218183
0.220359
0.221677
0.217186
0.20125
0.163746
0.106296
0.0596079
0.0139584
0.0153345
0.204883
0.0886429
0.201755
0.281636
0.298552
0.304531
0.301023
0.293337
0.289387
0.293362
0.300765
0.305958
0.301836
0.291156
0.276822
0.228958
0.138125
0.0683761
0.0197277
0.0116724
0.218587
0.062196
0.234186
0.314582
0.344442
0.359912
0.363666
0.361408
0.360262
0.360824
0.358778
0.356657
0.357878
0.359769
0.354531
0.308728
0.180297
0.0765386
0.0291329
0.0084677
0.218536
0.0670036
0.255789
0.336722
0.378299
0.403559
0.413692
0.413787
0.407192
0.391896
0.366174
0.351746
0.365048
0.38269
0.39282
0.366928
0.219762
0.0830079
0.0375183
0.00548247
0.0457757
0.232063
0.3383
0.387484
0.420215
0.436376
0.440173
0.428325
0.400791
0.367281
0.350963
0.368397
0.395945
0.409456
0.377328
0.23326
0.114541
0.0408087
0.00347563
0.0719038
0.185846
0.316273
0.36167
0.397271
0.420712
0.431489
0.427352
0.410653
0.391262
0.384946
0.401735
0.418917
0.416143
0.358717
0.207094
0.104652
0.0341045
0.00535802
0.138146
0.0761264
0.232564
0.277174
0.320316
0.356101
0.382525
0.400216
0.411147
0.419028
0.429305
0.440744
0.439035
0.400987
0.312101
0.216251
0.0663453
0.0242995
0.0729235
0.0455488
0.12342
0.149992
0.215114
0.275796
0.326621
0.369789
0.405802
0.429676
0.433866
0.398118
0.333543
0.283912
0.125943
0.0362728
0.00741397
0.0787277
0.047543
0.0293559
0.0361452
0.0643216
0.11918
0.191243
0.26121
0.316485
0.335551
0.312057
0.277759
0.263895
0.167719
0.0524734
0.0123257
0.0588229
0.0267869
0.0203419
0.0315279
0.0611795
0.0961713
0.128486
0.157798
0.182807
0.199678
0.186675
0.128568
0.0501417
0.0137352
0.0192725
0.0143254
0.0200514
0.039523
0.0481012
0.0470901
0.0494452
0.0558361
0.0493584
0.0275069
0.00772235
0.0162054
0.0209236
0.0247786
0.0173743
0.0171255
0.0219573
0.0186303
0.00895854
0.00226851
0.00139963
0.00158767
0.0935284
0.0139026
0.0237811
0.022885
0.0284967
0.0413664
0.0440528
0.0321424
0.030435
0.0728288
0.108237
0.0431831
0.0340352
0.0571185
0.0694072
0.081804
0.0842752
0.0822019
0.078668
0.0709338
0.0607934
0.052229
0.12671
0.0905013
0.079351
0.040905
0.060491
0.073441
0.0827923
0.0917379
0.0968975
0.0933848
0.083791
0.0726079
0.0598633
0.0496976
0.0487743
0.182399
0.0876751
0.0963488
0.070458
0.0690439
0.0945664
0.110299
0.121349
0.128583
0.125222
0.112293
0.0956636
0.0790259
0.0633933
0.0498462
0.0381198
0.123843
0.135886
0.159665
0.138042
0.148289
0.167751
0.178305
0.183204
0.176512
0.155473
0.131841
0.110043
0.0900052
0.070171
0.0502836
0.0331891
0.0258621
0.247527
0.0986706
0.246901
0.235332
0.229318
0.234247
0.237268
0.231867
0.218299
0.192713
0.163978
0.141007
0.122392
0.104044
0.0821188
0.0564499
0.030919
0.0126687
0.0135128
0.25118
0.160092
0.291837
0.285219
0.279791
0.271014
0.2546
0.231146
0.204244
0.1808
0.164903
0.153107
0.140874
0.123933
0.0983511
0.0663846
0.0347807
0.00770582
0.0106469
0.220243
0.235027
0.321636
0.323053
0.313454
0.293881
0.266731
0.239554
0.219275
0.208934
0.202872
0.195561
0.184112
0.163426
0.125604
0.0788194
0.0414345
0.00705483
0.00768997
0.203638
0.145721
0.256744
0.354283
0.372064
0.369908
0.353067
0.328971
0.310118
0.30245
0.297409
0.288121
0.273655
0.257468
0.232276
0.174766
0.0990941
0.0514836
0.0103746
0.00376572
0.232766
0.0966991
0.279554
0.387544
0.423131
0.433622
0.425919
0.408669
0.395319
0.390489
0.385511
0.373349
0.357211
0.338677
0.316864
0.245709
0.12784
0.0614284
0.0199164
0.00195024
0.227087
0.078141
0.300107
0.4096
0.458712
0.481074
0.482142
0.470056
0.456937
0.445539
0.432153
0.421481
0.410675
0.394468
0.376114
0.313385
0.158838
0.0673266
0.0316551
0.00178073
0.0766738
0.276533
0.408935
0.465526
0.497922
0.509087
0.505546
0.494737
0.476123
0.453069
0.439273
0.439685
0.429651
0.405105
0.333781
0.177344
0.0890375
0.0352991
0.0053977
0.0718783
0.211424
0.362515
0.422662
0.467714
0.493728
0.503127
0.500839
0.490019
0.474927
0.465237
0.463014
0.449244
0.408988
0.317979
0.161738
0.0844581
0.0296985
0.00480801
0.117518
0.0568277
0.217625
0.280981
0.360497
0.414845
0.447678
0.465627
0.473923
0.47685
0.477485
0.471644
0.44232
0.376326
0.268378
0.171712
0.056333
0.0217316
0.0713173
0.0421461
0.0954825
0.175921
0.260409
0.328003
0.375857
0.408941
0.431843
0.440818
0.423186
0.376234
0.300079
0.244296
0.09716
0.0318074
0.00659145
0.0745572
0.0374131
0.0283494
0.0621719
0.107674
0.170047
0.234588
0.28923
0.325301
0.323894
0.305181
0.268245
0.244303
0.135871
0.0426039
0.010887
0.0550556
0.0228582
0.0316013
0.0606995
0.109595
0.152482
0.177791
0.187411
0.201373
0.215057
0.196772
0.120533
0.0421632
0.0118588
0.0179709
0.0226135
0.0441301
0.0863351
0.100881
0.0984262
0.0981609
0.0947442
0.063108
0.0270955
0.0067396
0.0186174
0.0305534
0.0511439
0.0509888
0.0430283
0.0395159
0.0208703
0.00693642
0.00111452
0.00116261
0.00132303
0.0973284
0.00880885
0.0101221
0.0105622
0.0134416
0.018871
0.0208548
0.0151777
0.0147722
0.0946095
0.12942
0.0406042
0.0218462
0.0389325
0.0450711
0.0543103
0.0642677
0.0654889
0.0643366
0.0579982
0.0487189
0.0428496
0.1143
0.119267
0.0937691
0.0548421
0.0600844
0.0631167
0.0701135
0.079573
0.0881205
0.0856166
0.0747564
0.060953
0.0497113
0.043759
0.0453714
0.138716
0.129737
0.175889
0.145985
0.124469
0.124231
0.122404
0.124309
0.128621
0.126787
0.112757
0.0925732
0.0713561
0.0526496
0.0401825
0.033004
0.120029
0.231909
0.269238
0.242686
0.226991
0.216197
0.206556
0.200994
0.191968
0.168867
0.140973
0.113132
0.0866637
0.0618046
0.0408779
0.0268875
0.0243618
0.203158
0.142792
0.330994
0.31886
0.30649
0.29362
0.277347
0.259176
0.238696
0.209294
0.176229
0.1471
0.12234
0.0995447
0.0753181
0.0493338
0.0258977
0.0106622
0.0126255
0.165875
0.226389
0.360235
0.34625
0.328395
0.305067
0.276314
0.244852
0.213084
0.185372
0.162362
0.143215
0.12586
0.107579
0.0857037
0.0605807
0.0316352
0.00732247
0.00656875
0.188355
0.312065
0.390487
0.386001
0.364883
0.330411
0.288612
0.248886
0.218947
0.199582
0.182889
0.166538
0.148999
0.126912
0.0971186
0.0669574
0.0388988
0.0091275
0.00245428
0.196759
0.171711
0.32746
0.42597
0.440672
0.42913
0.397871
0.356832
0.320298
0.296765
0.278238
0.257053
0.231905
0.206152
0.173314
0.123572
0.0765556
0.0467286
0.0134958
0.000885334
0.225969
0.118661
0.347574
0.458592
0.49233
0.494013
0.472249
0.438163
0.408398
0.391389
0.377122
0.356291
0.323908
0.288928
0.247045
0.169351
0.0910771
0.0519891
0.018362
0.00141142
0.204782
0.110775
0.35727
0.474683
0.525602
0.541601
0.529874
0.501579
0.475039
0.458397
0.445046
0.427538
0.398627
0.362447
0.321208
0.225022
0.108996
0.0547529
0.0268025
0.00221329
0.105143
0.30127
0.456455
0.525197
0.558175
0.559803
0.541588
0.518918
0.500511
0.485052
0.470331
0.44692
0.409926
0.359148
0.25887
0.122168
0.0673432
0.0285417
0.00503726
0.102973
0.157658
0.352472
0.464889
0.523552
0.547775
0.546809
0.533613
0.518466
0.503918
0.489816
0.469004
0.430024
0.364529
0.249674
0.117777
0.0653246
0.0242108
0.00404069
0.102976
0.0557297
0.142049
0.314733
0.418034
0.476688
0.502048
0.506848
0.502653
0.495426
0.484143
0.462137
0.415547
0.332159
0.212355
0.127298
0.0461699
0.0183016
0.0560798
0.044829
0.135143
0.26314
0.342446
0.396788
0.428087
0.443084
0.448562
0.442348
0.417362
0.357984
0.267637
0.201267
0.074058
0.0272822
0.00577262
0.072209
0.0305884
0.0544881
0.131375
0.190109
0.2506
0.299432
0.334933
0.356696
0.354942
0.332434
0.270591
0.228473
0.107323
0.0357225
0.00965979
0.0528882
0.0312281
0.061389
0.108836
0.16593
0.192639
0.22614
0.244593
0.251314
0.255498
0.213015
0.111776
0.0370637
0.010704
0.0211442
0.0257318
0.0562812
0.113448
0.162835
0.175998
0.177901
0.158505
0.0834128
0.0294177
0.00633957
0.0208141
0.024117
0.0564686
0.102507
0.117612
0.0977051
0.0328593
0.00645334
0.000528658
0.000700788
0.00102006
0.120149
0.0167699
0.00337772
0.0040849
0.0050351
0.0062204
0.0056901
0.00368934
0.00343915
0.111373
0.157172
0.0521127
0.0256342
0.0301852
0.0276487
0.0290581
0.0349465
0.0408794
0.0438281
0.0375473
0.0255522
0.0212778
0.111901
0.204763
0.159141
0.121707
0.0961869
0.0755971
0.0671898
0.0692128
0.0783903
0.0792287
0.0681354
0.0494703
0.0368586
0.031438
0.0305457
0.11507
0.248651
0.289325
0.256347
0.218535
0.185844
0.155054
0.137353
0.132038
0.131016
0.117733
0.0953654
0.0690322
0.0424149
0.0284937
0.0218968
0.105383
0.338197
0.354716
0.331078
0.304519
0.273659
0.245256
0.226299
0.212127
0.189105
0.159161
0.127051
0.0938826
0.0607787
0.0326479
0.016887
0.0134151
0.159881
0.235714
0.405639
0.379414
0.358123
0.337399
0.312819
0.287171
0.26137
0.230145
0.195925
0.163727
0.134888
0.108293
0.0806985
0.0507298
0.0214189
0.00573564
0.00230735
0.154496
0.293421
0.42795
0.399905
0.368104
0.333126
0.295401
0.258185
0.223425
0.193112
0.166229
0.142961
0.12304
0.105548
0.0885651
0.0688764
0.0384334
0.00913343
0.00115447
0.135193
0.382338
0.457052
0.444783
0.411933
0.364668
0.309517
0.257837
0.219038
0.189902
0.165391
0.143527
0.123824
0.104991
0.0862432
0.0702292
0.0531552
0.0240354
0.00135117
0.18188
0.140803
0.391581
0.490961
0.499698
0.476346
0.431136
0.373674
0.319269
0.27761
0.245335
0.214034
0.182861
0.153948
0.124493
0.0927956
0.0688433
0.0518115
0.0434969
0.0128625
0.171525
0.13872
0.385505
0.515174
0.546532
0.536322
0.499246
0.447241
0.397862
0.362559
0.335984
0.302693
0.25891
0.215486
0.168055
0.112885
0.0719838
0.0457212
0.0253451
0.0333616
0.150703
0.136332
0.365393
0.518746
0.574228
0.581052
0.55403
0.50703
0.460963
0.432073
0.412806
0.385527
0.341965
0.292012
0.228497
0.143411
0.0792126
0.0453539
0.0210205
0.00402206
0.109801
0.286291
0.489452
0.567188
0.598576
0.587665
0.549085
0.506665
0.477764
0.459439
0.43688
0.398026
0.346978
0.279176
0.17248
0.0852735
0.0529146
0.0222975
0.00415771
0.087828
0.143825
0.395531
0.503596
0.56414
0.583081
0.565919
0.533598
0.504381
0.483655
0.461979
0.426608
0.373335
0.294135
0.175662
0.0851667
0.0510798
0.0192854
0.00336192