/*--------------------------------*- C++ -*----------------------------------*\
| =========                 |                                                 |
| \\      /  F ield         | OpenFOAM: The Open Source CFD Toolbox           |
|  \\    /   O peration     | Version:  2406                                  |
|   \\  /    A nd           | Website:  www.openfoam.com                      |
|    \\/     M anipulation  |                                                 |
\*---------------------------------------------------------------------------*/
FoamFile
{
    version     2.0;
    format      ascii;
    arch        "LSB;label=32;scalar=64";
    class       volScalarField;
    location    "150";
    object      p;
}
// * * * * * * * * * * * * * * * * * * * * * * * * * * * * * * * * * * * * * //

dimensions      [0 2 -2 0 0 0 0];

internalField   nonuniform List<scalar> 
238188
(
230.879
320.524
420.461
566.73
246.666
326.426
420.804
564.004
779.947
222.642
310.973
412.653
576.484
810.463
185.347
269.733
412.11
621.627
858.884
265.634
257.931
222.162
193.205
201.63
239.805
309.573
192.752
191.369
196.132
215.468
287.097
193.36
191.822
191.068
195.023
195.174
190.867
209.104
209.235
209.216
206.52
207.137
207.101
208.351
209.291
208.96
208.849
208.874
208.831
207.809
206.392
206.041
206.338
206.31
206.997
208.991
208.763
208.641
208.621
208.685
208.829
208.991
204.841
205.424
206.546
206.775
206.07
206.026
206.826
208.193
208.419
208.313
208.293
208.38
208.538
208.777
209.134
210.665
167.355
211.196
211.26
206.981
208.012
204.458
205.656
207.172
207.59
207.667
207.686
207.784
208.007
208.343
208.837
126.307
208.455
214.719
199.344
203.803
207.386
200.334
203.84
206.271
206.725
206.798
206.767
206.847
207.119
207.596
208.249
209.076
306.69
104.241
223.779
204.313
198.064
201.134
204.222
203.682
205.518
206.005
206.077
205.979
205.815
205.822
206.106
206.682
207.53
208.619
209.351
237.516
130.424
214.539
205.572
202.122
202.642
205.321
206.45
206.117
205.815
205.568
205.26
204.824
204.724
205.087
205.82
206.802
208.094
209.364
218.473
155.737
209.594
209.576
207.348
206.135
206.636
206.398
205.876
205.447
205.091
204.607
203.82
203.475
203.357
204.034
205.44
207.016
208.681
246.804
214.522
172.428
204.257
210.752
206.975
206.877
206.558
206.025
205.455
205.002
204.566
204.068
203.359
202.775
201.527
200.666
201.982
204.759
206.925
236.952
213.068
182.252
200.44
208.154
206.956
206.638
206.142
205.551
204.917
204.346
204.108
203.342
203.03
203.149
202.907
200.509
199.161
202.375
205.502
229.196
213.047
189.284
198.704
207.466
206.738
206.224
205.585
205.018
204.482
203.874
202.672
201.229
200.771
201.449
202.392
202.833
202.925
203.621
204.782
212.334
196.355
197.155
207.632
206.736
205.913
205.217
204.465
203.518
202.463
201.329
200.249
199.801
200.078
200.997
202.106
203.159
204.758
206.376
218.44
204.688
196.931
207.726
206.907
205.252
204.156
203.208
202.351
201.633
200.915
200.416
200.282
200.044
200.321
201.514
203.015
205.074
207.074
239.123
212.919
200.273
208.356
205.212
203.514
202.556
201.682
200.998
200.61
200.526
200.68
200.862
200.685
200.474
201.557
203.417
205.863
220.837
208.657
205.781
201.016
200.761
200.765
200.423
200.34
200.529
200.917
201.256
201.409
201.179
200.977
202.234
204.611
207.238
229.37
219.269
209.013
206.087
202.078
197.621
200.86
201.402
201.737
201.858
201.731
201.748
201.524
201.786
203.728
206.698
231.097
219.056
211.603
209.321
205.45
203.025
202.636
202.668
202.381
202.573
202.773
202.757
204.086
206.941
228.882
220.191
216.336
213.68
211.854
209.807
207.855
206.598
206.175
206.474
209.08
234.044
224.373
220.781
218.387
216.298
215.575
213.774
212.768
208.302
208.93
209.051
205.995
207.353
206.407
207.566
208.713
208.75
208.714
208.787
208.834
206.839
205.672
205.674
205.924
205.379
206.971
208.792
208.596
208.515
208.486
208.525
208.752
208.856
203.474
205.639
205.841
206.349
206.312
206.342
207.613
208.643
208.246
208.108
208.091
208.207
208.376
208.653
208.968
321.28
212.082
206.113
206.224
206.58
207.095
206.431
206.961
207.39
207.44
207.403
207.399
207.529
207.83
208.254
208.674
276.325
211.73
205.476
206.02
206.86
206.764
206.04
206.233
206.532
206.578
206.489
206.402
206.486
206.827
207.424
208.146
208.774
337.141
215.705
207.963
205.456
205.782
205.772
207.57
206.117
206.04
206.019
205.851
205.594
205.381
205.401
205.705
206.293
207.249
208.368
209.065
269.837
195.006
204.493
205.606
205.56
205.972
206.629
206.075
205.823
205.567
205.217
204.777
204.482
204.508
204.819
205.358
206.22
207.652
208.918
221.717
192.039
202.54
206.102
206.088
206.061
206.111
205.79
205.424
205.091
204.604
204.028
203.612
203.277
203.371
204.182
205.115
206.622
208.308
238.548
211.222
195.711
202.666
206.211
206.337
206.187
205.872
205.421
204.998
204.623
204.065
203.427
202.938
202.284
201.604
202.329
203.559
205.151
206.848
223.571
207.684
196.861
204.078
206.401
206.402
206.041
205.562
205.056
204.61
204.203
203.526
202.995
202.26
201.627
201.475
201.668
202.376
203.992
205.587
217.045
207.99
197.996
204.965
206.488
206.286
205.81
205.329
204.858
204.267
203.387
202.21
200.641
199.951
200.269
200.761
201.589
202.436
204.122
205.673
211.543
201.184
205.003
206.433
206.129
205.596
205.069
204.345
203.315
202.059
200.678
199.928
199.852
199.761
200.012
200.972
202.393
204.596
206.216
217.459
206.493
204.947
206.113
205.787
205.278
204.456
203.229
202.012
200.961
200.229
199.969
199.999
199.938
200.091
200.733
202.598
205.194
206.544
220.692
212.819
206.544
205.956
205.371
204.733
203.276
201.724
200.59
199.962
199.785
200.032
200.35
200.424
200.611
201.033
203.255
205.885
219.367
210.807
206.133
205.286
204.58
202.757
201.09
200.035
199.675
199.892
200.468
200.954
201.102
201.27
201.909
204.618
206.758
222.605
217.866
207.867
205.993
205.439
203.484
201.664
200.639
200.401
200.689
201.256
201.739
201.909
202.197
203.466
205.823
218.937
211.07
207.397
206.175
204.568
202.537
201.498
201.578
202.078
202.546
202.959
203.288
204.172
205.686
212.47
209.872
208.591
207.167
206.301
205.104
205.636
206.24
206.345
206.128
207.175
224.584
219.007
217.659
215.885
213.948
214.959
214.362
212.912
208.688
208.878
208.945
206.6
208.77
208.269
208.305
208.465
208.576
208.591
208.641
208.705
207.454
205.176
206.453
207.132
207.391
208.077
208.18
208.175
208.311
208.37
208.407
208.572
208.696
207.765
207.228
206.483
206.623
206.727
207.141
207.58
207.733
207.746
207.706
207.768
208.078
208.269
208.506
208.861
246.47
208.145
207.272
206.38
206.378
206.432
206.635
206.898
207.024
207.044
207.016
207.038
207.219
207.766
208.19
208.574
217.638
207.266
206.483
205.968
206.005
206.196
206.183
206.302
206.323
206.227
206.064
206.003
206.17
206.553
207.213
208.059
208.774
266.828
209.609
207.122
205.915
205.854
205.887
206.038
205.888
205.824
205.681
205.428
205.156
205.042
205.16
205.467
206.104
207.209
208.343
209.078
244.902
208.278
205.94
205.183
205.722
205.743
205.734
205.547
205.34
205.065
204.711
204.443
204.404
204.5
204.616
205.036
206.136
207.598
208.852
211.609
206.195
205.385
205.353
205.781
205.601
205.467
205.155
204.837
204.495
204.142
203.929
203.902
203.946
203.948
204.063
205.179
206.74
208.316
222.809
207.195
206.461
206.154
205.979
205.889
205.535
205.198
204.774
204.359
203.967
203.571
203.309
203.23
203.236
203.312
203.309
204.091
205.647
207.361
212.315
206.887
206.919
206.631
206.202
205.85
205.398
204.948
204.474
204.023
203.573
202.99
202.346
201.789
201.909
202.366
202.704
203.289
204.729
206.202
209.295
207.11
207.085
206.615
206.151
205.718
205.234
204.787
204.36
203.834
203.056
201.969
200.877
200.369
200.591
201.106
201.942
202.889
204.372
205.494
207.29
207.196
206.402
206.028
205.586
205.149
204.751
204.185
203.258
202.072
200.907
200.138
199.834
199.848
200.133
200.984
202.044
204.65
206.018
208.737
207.114
206.37
205.987
205.541
205.184
204.669
203.672
202.326
201.075
200.289
200.024
200.074
200.068
200.149
200.837
202.524
205.179
206.473
211.648
207.574
206.61
206.042
205.596
205.312
204.585
203.18
201.646
200.601
200.211
200.295
200.514
200.606
200.721
200.605
203.034
205.726
210.806
207.053
205.884
205.777
205.63
204.844
203.385
201.83
200.918
200.686
200.877
201.117
201.327
201.233
201.592
204.301
206.56
214.752
211.328
206.822
206.533
206.419
205.566
204.06
202.513
201.775
201.647
201.824
202.016
202.142
202.016
203.128
205.482
213.028
208.821
207.009
206.665
205.993
205.018
203.715
202.886
202.621
202.634
202.716
203.053
203.515
204.895
209.349
208.364
206.898
205.683
204.615
204.031
204.039
204.304
205.47
205.543
206.067
215.565
213.078
210.958
209.114
209.297
210.274
211.889
212.048
208.683
208.699
208.753
207.428
208.932
208.335
208.184
208.261
208.392
208.467
208.578
208.674
207.425
204.956
206.73
207.427
207.287
207.587
207.747
207.867
208.121
208.25
208.326
208.53
208.618
207.959
207.203
206.372
206.362
206.416
206.728
207.075
207.315
207.474
207.541
207.65
208.019
208.278
208.469
208.726
209.306
207.609
207.015
206.158
205.997
206.051
206.304
206.579
206.768
206.894
206.95
207.035
207.273
207.84
208.229
208.491
207.907
207.336
206.434
205.984
205.774
205.833
205.963
206.111
206.182
206.169
206.116
206.15
206.359
206.798
207.457
208.103
208.611
216.309
206.631
206.722
206.046
205.825
205.684
205.703
205.683
205.664
205.58
205.412
205.236
205.181
205.327
205.707
206.444
207.46
208.283
208.906
209.723
206.335
206.162
205.706
205.717
205.588
205.507
205.331
205.148
204.928
204.665
204.472
204.427
204.48
204.655
205.274
206.534
207.727
208.582
206.704
206.105
205.89
205.758
205.7
205.456
205.194
204.871
204.58
204.302
204.051
203.922
203.911
203.869
203.833
204.206
205.632
207.005
208.004
211.68
206.71
206.217
206.099
205.94
205.639
205.229
204.817
204.418
204.069
203.763
203.524
203.415
203.309
203.134
203.044
203.231
204.578
206.084
207.309
209.135
206.795
206.458
206.248
205.909
205.473
204.98
204.513
204.087
203.685
203.318
202.981
202.582
202.09
201.968
201.998
202.295
203.584
205.238
206.501
208.165
206.993
206.633
206.275
205.801
205.294
204.788
204.339
203.922
203.467
202.921
202.233
201.387
200.716
200.708
200.884
201.575
203.012
204.742
205.808
207.307
206.822
206.185
205.702
205.194
204.732
204.335
203.9
203.297
202.48
201.527
200.646
200.15
200.027
200.055
200.791
202.05
204.748
206.027
207.377
206.892
206.245
205.772
205.254
204.83
204.459
203.951
203.139
202.12
201.212
200.622
200.4
200.221
200.123
200.79
202.481
205.201
206.594
207.712
206.831
206.479
205.974
205.45
205.057
204.69
204.075
203.095
202.044
201.269
200.921
200.86
200.764
200.732
200.484
203.111
205.792
207.396
206.819
206.297
205.795
205.458
205.034
204.336
203.265
202.261
201.611
201.374
201.365
201.422
201.133
201.536
204.415
206.532
210.723
208.207
206.802
206.404
206.14
205.684
204.842
203.655
202.756
202.288
202.136
202.178
202.203
201.935
203.183
205.552
210.142
208.036
206.823
206.47
206.099
205.354
204.121
203.325
203.013
202.945
202.907
203.139
203.407
204.79
208.568
207.845
206.974
205.833
204.258
203.829
203.936
204.243
205.13
205.055
205.648
211.258
210.433
208.907
206.092
206.832
207.563
209.059
209.456
208.44
208.409
208.497
207.73
208.665
208.158
207.956
207.984
208.15
208.301
208.504
208.672
206.783
204.557
206.523
207.23
206.991
207.16
207.362
207.573
207.919
208.133
208.264
208.501
208.589
207.686
206.814
206.16
206.148
206.107
206.32
206.63
206.927
207.184
207.382
207.563
207.938
208.236
208.434
208.656
207.745
207.353
206.864
206.058
205.746
205.709
205.939
206.235
206.481
206.695
206.859
207.034
207.293
207.845
208.233
208.451
207.455
207.25
206.464
205.909
205.584
205.564
205.701
205.873
205.994
206.083
206.137
206.263
206.51
206.951
207.539
208.146
208.514
208.493
206.767
206.682
206.222
205.84
205.6
205.526
205.495
205.476
205.429
205.351
205.29
205.32
205.507
205.928
206.64
207.573
208.244
208.629
204.867
205.639
206.248
206.008
205.806
205.577
205.371
205.142
204.93
204.745
204.578
204.465
204.433
204.493
204.755
205.499
206.736
207.722
208.296
205.554
205.987
206.032
205.864
205.67
205.333
204.961
204.586
204.286
204.072
203.919
203.811
203.728
203.638
203.679
204.308
205.814
207.052
207.816
208.435
206.374
206.152
206.01
205.732
205.385
204.917
204.463
204.069
203.769
203.55
203.39
203.246
203.037
202.802
202.684
203.149
204.801
206.263
207.232
208.154
206.738
206.306
205.984
205.561
205.094
204.586
204.142
203.776
203.459
203.172
202.909
202.561
202.081
201.799
201.646
202.081
203.818
205.528
206.606
207.88
206.949
206.382
205.915
205.402
204.89
204.41
204.01
203.666
203.312
202.904
202.398
201.718
201.095
200.901
200.859
201.461
203.245
205.026
206.069
207.11
206.629
205.821
205.312
204.821
204.393
204.032
203.698
203.299
202.745
202.024
201.247
200.685
200.419
200.314
201.002
202.399
204.96
206.038
207.036
206.555
205.868
205.387
204.915
204.514
204.166
203.834
203.393
202.74
201.971
201.309
200.897
200.602
200.45
201.181
202.896
205.394
206.644
206.828
206.567
206.181
205.581
205.129
204.745
204.394
204.038
203.524
202.823
202.109
201.603
201.319
201.093
201.006
200.74
203.609
205.987
206.659
206.41
206.046
205.447
205.102
204.724
204.287
203.666
202.95
202.322
201.938
201.76
201.707
201.24
201.926
204.866
206.682
208.721
206.898
206.386
205.982
205.694
205.336
204.809
204.023
203.27
202.763
202.515
202.442
202.354
202.088
203.683
205.929
208.568
207.267
206.494
206.167
205.881
205.422
204.455
203.571
203.168
203.206
203.14
203.324
203.816
205.357
207.591
207.272
206.774
206.079
204.712
203.984
204.014
204.456
205.166
204.995
206.105
209.413
208.677
208.573
205.664
205.569
206.505
207.709
207.698
208.258
208.198
208.287
207.78
208.438
208.02
207.803
207.776
207.919
208.078
208.334
208.588
205.139
204.457
206.464
207.234
206.915
206.931
207.08
207.31
207.679
207.954
208.183
208.45
208.534
207.164
206.191
206.128
206.314
206.193
206.232
206.406
206.67
206.948
207.21
207.447
207.832
208.127
208.33
208.558
207.571
207.219
206.852
206.276
205.989
205.828
205.892
206.086
206.3
206.522
206.755
207
207.266
207.771
208.142
208.355
207.255
207.218
206.567
206.185
205.87
205.711
205.722
205.8
205.893
206.005
206.126
206.317
206.597
207.028
207.53
208.053
208.328
208.511
207.488
206.73
206.437
206.148
205.865
205.67
205.536
205.429
205.347
205.29
205.284
205.38
205.623
206.1
206.768
207.532
208.003
208.334
206.697
206.599
206.382
206.235
206.011
205.723
205.412
205.086
204.79
204.56
204.404
204.326
204.336
204.474
204.872
205.72
206.849
207.492
208.004
205.311
206.01
206.039
205.901
205.639
205.248
204.791
204.347
203.994
203.762
203.626
203.53
203.449
203.413
203.59
204.503
205.986
206.873
207.581
208.193
206.372
205.884
205.777
205.502
205.107
204.62
204.131
203.717
203.409
203.2
203.05
202.883
202.687
202.513
202.45
203.225
205.013
206.216
207.004
208.646
206.798
205.956
205.607
205.183
204.717
204.237
203.804
203.456
203.17
202.911
202.648
202.321
201.947
201.701
201.521
202.146
204.08
205.609
206.37
208.247
206.779
205.971
205.47
204.981
204.518
204.095
203.726
203.419
203.128
202.791
202.365
201.836
201.342
201.122
200.985
201.615
203.581
205.205
205.821
206.701
206.157
205.369
204.911
204.485
204.113
203.788
203.498
203.199
202.807
202.272
201.649
201.12
200.855
200.71
201.437
202.972
205.296
205.833
206.32
206.116
205.404
204.983
204.587
204.25
203.944
203.656
203.348
202.931
202.378
201.793
201.323
201.028
200.898
201.765
203.496
205.821
206.692
206.679
206.044
205.681
205.174
204.803
204.479
204.16
203.845
203.499
203.058
202.542
202.07
201.714
201.455
201.423
201.348
204.305
206.332
205.994
205.733
205.527
205.083
204.773
204.444
204.102
203.698
203.21
202.724
202.37
202.148
202.036
201.477
202.612
205.482
206.96
207.464
206.084
205.948
205.611
205.268
204.899
204.523
204.071
203.537
203.096
202.877
202.76
202.562
202.47
204.468
206.461
207.789
206.712
206.102
205.76
205.442
205.097
204.651
203.889
203.324
203.297
203.301
203.56
204.521
206.216
206.772
206.633
206.276
205.966
205.164
204.262
204.086
204.547
205.287
205.237
206.994
208.107
207.325
207.016
206.891
205.476
205.786
206.539
207.33
208.137
208.061
208.107
207.768
208.148
207.834
207.681
207.622
207.667
207.788
208.028
208.33
205.06
205.857
206.715
207.234
206.999
206.896
206.925
207.087
207.404
207.674
207.963
208.288
208.403
204.974
205.615
206.354
206.658
206.562
206.45
206.436
206.56
206.769
207.018
207.253
207.625
207.923
208.135
208.372
206.569
206.108
206.523
206.551
206.458
206.27
206.153
206.16
206.253
206.408
206.63
206.877
207.129
207.567
207.896
208.133
207.112
206.705
206.567
206.492
206.34
206.125
205.974
205.907
205.911
205.984
206.117
206.321
206.606
206.996
207.348
207.815
208.016
208.004
207.297
206.652
206.543
206.424
206.216
205.958
205.722
205.525
205.384
205.305
205.319
205.45
205.737
206.212
206.72
207.321
207.635
207.883
207.883
207.122
206.459
206.328
206.138
205.854
205.497
205.122
204.762
204.478
204.297
204.232
204.297
204.535
205.036
205.813
206.707
207.115
207.456
205.806
206.26
206.033
205.856
205.548
205.137
204.656
204.172
203.764
203.487
203.324
203.232
203.213
203.296
203.666
204.735
205.889
206.414
206.884
207.394
205.557
205.74
205.548
205.284
204.864
204.372
203.865
203.412
203.068
202.831
202.663
202.515
202.399
202.328
202.424
203.538
205.19
205.823
206.131
207.218
206.052
205.641
205.277
204.886
204.44
203.983
203.546
203.163
202.848
202.574
202.317
202.053
201.82
201.673
201.563
202.555
204.639
205.549
205.417
206.274
206.368
205.645
205.135
204.685
204.263
203.87
203.506
203.176
202.874
202.551
202.183
201.782
201.463
201.32
201.185
202.114
204.443
205.612
205.162
206.479
205.773
205.03
204.631
204.253
203.913
203.598
203.304
203.011
202.671
202.25
201.779
201.404
201.225
201.119
202.089
203.922
205.989
205.993
206.464
205.654
205.052
204.706
204.365
204.064
203.773
203.49
203.199
202.865
202.456
202.003
201.64
201.412
201.393
202.514
204.313
206.387
206.949
205.584
205.329
205.258
204.888
204.574
204.295
204.001
203.702
203.401
203.064
202.69
202.315
202.021
201.801
201.921
202.174
205.099
206.771
204.893
205.394
205.12
204.832
204.572
204.275
203.966
203.65
203.304
202.956
202.682
202.465
202.354
201.833
203.44
206.123
207.27
207.413
205.927
205.569
205.284
204.986
204.653
204.353
204.074
203.739
203.416
203.234
203.063
202.758
202.987
205.291
206.966
207.448
206.246
205.713
205.402
205.083
204.808
204.612
204.217
203.777
203.61
203.585
203.787
205.272
206.99
206.341
206.162
205.813
205.62
205.413
204.977
204.653
204.919
205.545
205.647
207.725
207.186
206.551
206.247
206.896
206.129
205.544
205.848
207.477
207.98
207.932
207.938
207.725
208.024
207.683
207.554
207.473
207.449
207.528
207.707
207.968
207.183
207.19
207.188
207.317
207.103
206.958
206.874
206.939
207.156
207.36
207.618
207.931
208.109
205.826
206.521
206.911
206.98
206.935
206.766
206.617
206.586
206.676
206.846
207.013
207.318
207.577
207.835
208.075
205.584
206.176
206.532
206.799
206.853
206.706
206.503
206.354
206.307
206.357
206.507
206.687
206.862
207.214
207.49
207.753
206.159
206.611
206.654
206.746
206.701
206.496
206.266
206.095
206.014
206.032
206.132
206.294
206.515
206.771
206.911
207.377
207.614
207.395
207.393
206.774
206.648
206.594
206.444
206.201
205.939
205.712
205.539
205.446
205.461
205.594
205.856
206.208
206.42
206.85
207.159
207.338
208.292
207.559
206.62
206.376
206.171
205.908
205.575
205.204
204.846
204.559
204.386
204.345
204.471
204.775
205.263
205.776
206.31
206.42
206.682
207.356
206.77
206.167
205.8
205.439
205.031
204.572
204.098
203.687
203.401
203.235
203.17
203.239
203.46
204.018
205.094
205.917
205.725
206.03
207.037
205.493
206.086
205.557
205.147
204.702
204.217
203.71
203.245
202.884
202.637
202.462
202.348
202.319
202.37
202.757
204.232
205.75
205.463
205.552
207.005
205.973
205.611
205.131
204.703
204.268
203.822
203.376
202.97
202.634
202.368
202.135
201.932
201.807
201.737
201.851
203.443
205.625
205.926
205.582
208.642
206.43
205.378
204.896
204.482
204.092
203.713
203.338
202.99
202.677
202.385
202.085
201.802
201.609
201.497
201.493
202.989
205.539
206.539
206.41
206.121
205.414
204.772
204.426
204.088
203.763
203.439
203.133
202.843
202.547
202.221
201.893
201.66
201.507
201.527
202.947
205.04
206.744
207.267
205.267
205.053
204.779
204.498
204.206
203.92
203.628
203.342
203.062
202.774
202.46
202.141
201.906
201.72
201.885
203.37
205.216
206.932
207.424
204.628
204.846
204.91
204.655
204.399
204.149
203.871
203.584
203.305
203.023
202.736
202.467
202.253
202.093
202.453
203.124
205.871
207.198
205.267
205.267
204.899
204.659
204.431
204.164
203.877
203.597
203.322
203.068
202.861
202.665
202.635
202.251
204.306
206.69
207.581
207.719
205.99
205.283
205.02
204.798
204.523
204.26
204.031
203.795
203.577
203.427
203.252
202.873
203.572
206.009
207.375
207.087
205.751
205.349
205.161
204.881
204.674
204.515
204.302
204.114
203.981
203.815
203.981
205.883
207.504
205.834
205.739
205.477
205.304
205.259
205.246
205.123
205.197
205.544
206.054
208.075
206.492
206.112
205.937
206.221
206.027
205.516
205.607
207.542
207.774
207.773
207.788
207.757
207.769
207.531
207.444
207.398
207.383
207.394
207.501
207.674
207.891
207.536
207.342
207.348
207.151
207.031
206.913
206.914
207.008
207.113
207.287
207.457
207.593
208.152
207.3
207.196
207.129
207.131
206.986
206.802
206.69
206.684
206.762
206.836
207.021
207.149
207.354
207.602
207.541
207.56
207.05
207
207.064
206.944
206.737
206.532
206.402
206.361
206.416
206.493
206.543
206.763
206.904
207.144
207.406
207.301
206.905
206.933
206.874
206.69
206.464
206.271
206.149
206.119
206.167
206.246
206.327
206.336
206.288
206.656
207.023
208.284
207.686
207.056
206.808
206.685
206.537
206.331
206.107
205.912
205.756
205.674
205.689
205.787
205.947
206.099
206.073
206.169
206.487
206.87
209.107
207.572
206.721
206.389
206.149
205.903
205.616
205.3
205.006
204.781
204.666
204.68
204.85
205.163
205.573
205.891
205.898
205.875
206.358
208.626
206.801
206.131
205.693
205.33
204.957
204.546
204.128
203.775
203.551
203.441
203.442
203.604
203.97
204.689
205.728
206.326
205.745
206.216
209.987
207.603
206.006
205.433
205
204.585
204.143
203.667
203.229
202.89
202.671
202.537
202.486
202.546
202.765
203.555
205.231
206.474
206.252
206.495
208.861
206.347
205.26
204.892
204.531
204.142
203.723
203.282
202.879
202.564
202.339
202.157
202.022
201.966
201.973
202.566
204.64
206.563
206.976
207.491
206.693
205.353
204.894
204.615
204.306
203.959
203.591
203.206
202.849
202.557
202.329
202.114
201.921
201.793
201.682
202.082
204.146
206.458
207.308
207.735
204.505
204.811
204.561
204.276
203.962
203.634
203.292
202.972
202.702
202.478
202.255
202.039
201.875
201.709
202.076
204.011
206.071
207.315
207.726
203.435
204.82
204.626
204.366
204.092
203.794
203.481
203.18
202.917
202.69
202.472
202.266
202.097
201.942
202.42
204.313
206.08
207.386
207.756
206.225
205.091
204.825
204.525
204.282
204.017
203.727
203.435
203.172
202.94
202.733
202.554
202.383
202.324
203.011
204.201
206.556
207.569
206.141
205.233
204.823
204.539
204.282
204.013
203.738
203.481
203.252
203.067
202.921
202.762
202.881
202.826
205.155
207.163
207.853
207.527
205.645
205.13
204.853
204.586
204.312
204.08
203.878
203.685
203.54
203.434
203.364
202.975
204.216
206.589
207.688
206.36
205.257
204.983
204.853
204.64
204.429
204.316
204.185
204.123
204.025
203.777
204.205
206.334
207.791
205.113
205.216
204.931
204.863
204.898
204.885
204.841
204.888
205.181
206.285
208.139
205.791
205.59
205.403
205.54
205.412
205.19
205.378
207.334
207.548
207.618
207.675
207.629
207.519
207.263
207.304
207.359
207.405
207.392
207.483
207.6
208.086
207.498
207.219
207.239
207.102
207.081
207.019
207.018
207.034
207.066
207.166
207.179
207.2
208.989
207.662
207.281
207.091
207.126
207.053
206.922
206.816
206.781
206.819
206.849
206.923
206.916
206.914
207.079
209.443
208.436
207.502
207.045
207.067
206.962
206.81
206.644
206.509
206.429
206.429
206.464
206.467
206.54
206.55
206.642
208.955
208.044
207.134
206.978
206.86
206.707
206.544
206.402
206.292
206.244
206.264
206.314
206.354
206.247
206.14
206.301
206.762
207.695
208.322
207.439
206.953
206.679
206.498
206.332
206.184
206.068
205.978
205.945
205.985
206.075
206.197
206.327
206.338
205.998
206.508
207.208
206.938
207.866
206.871
206.398
206.075
205.824
205.586
205.36
205.181
205.075
205.06
205.158
205.377
205.712
206.126
206.43
205.976
206.101
206.793
207.663
206.669
206.079
205.612
205.24
204.894
204.541
204.215
203.976
203.867
203.87
203.989
204.264
204.776
205.602
206.507
206.963
206.523
207.208
207.475
206.521
205.645
205.276
204.894
204.508
204.105
203.684
203.304
203.031
202.889
202.857
202.922
203.117
203.587
204.698
206.221
207.087
207.068
207.492
205.3
204.65
204.971
204.721
204.412
204.048
203.652
203.234
202.86
202.589
202.431
202.337
202.302
202.335
202.585
203.747
205.802
207.196
207.553
207.903
204.957
204.306
204.775
204.476
204.177
203.837
203.473
203.087
202.74
202.486
202.329
202.211
202.114
202.029
202.065
203.115
205.369
207.12
207.703
207.98
204.754
204.713
204.415
204.122
203.811
203.482
203.13
202.804
202.564
202.411
202.286
202.169
202.03
201.981
202.952
205.173
206.872
207.691
207.966
205.788
205.072
204.44
204.169
203.907
203.617
203.297
202.986
202.744
202.583
202.456
202.343
202.191
202.185
203.146
205.313
206.811
207.732
208
206.71
205.327
204.782
204.299
204.075
203.821
203.532
203.238
202.993
202.814
202.686
202.58
202.433
202.563
203.684
205.289
207.124
207.865
205.754
204.885
204.633
204.377
204.112
203.827
203.549
203.306
203.118
202.999
202.905
202.814
203.152
203.625
205.944
207.546
208.074
206.172
204.822
204.841
204.691
204.43
204.124
203.886
203.679
203.499
203.4
203.342
203.458
203.232
204.896
207.065
207.928
204.935
204.862
204.843
204.672
204.455
204.227
204.082
203.958
203.931
203.804
203.628
204.54
206.72
207.962
205.582
205.492
204.858
204.645
204.488
204.374
204.317
204.395
204.9
206.436
208.119
206.18
205.813
204.908
204.911
204.737
204.544
205.243
207.108
207.279
207.511
207.624
207.371
207.141
206.831
207.136
207.335
207.454
207.478
207.578
207.662
208.379
207.436
206.962
206.924
206.917
207.075
207.14
207.184
207.229
207.253
207.313
207.342
207.421
209.252
207.78
207.17
206.808
206.887
206.944
206.956
206.941
206.926
206.965
207.012
207.089
207.079
207.043
207.296
210.139
208.693
207.617
206.825
206.815
206.763
206.727
206.686
206.628
206.569
206.565
206.629
206.727
206.79
206.844
206.888
209.996
208.392
207.081
206.782
206.632
206.545
206.498
206.472
206.439
206.415
206.44
206.533
206.723
206.925
207.064
207.115
207.342
210.712
209.181
207.494
206.849
206.472
206.283
206.186
206.15
206.155
206.178
206.228
206.324
206.463
206.667
206.961
207.21
207.065
207.35
207.646
210.346
208.497
206.829
206.25
205.858
205.616
205.461
205.367
205.34
205.382
205.491
205.678
205.959
206.346
206.79
207.088
206.805
207.271
207.699
207.803
206.689
206.041
205.493
205.076
204.755
204.494
204.299
204.212
204.258
204.415
204.667
205.056
205.654
206.443
207.115
207.422
207.439
207.834
207.391
205.733
205.933
205.344
204.824
204.394
204.019
203.674
203.389
203.222
203.213
203.344
203.58
203.964
204.665
205.81
206.961
207.516
207.578
207.732
208.691
205.087
205.368
204.805
204.336
203.926
203.547
203.175
202.855
202.651
202.593
202.643
202.773
203.009
203.644
205.069
206.704
207.607
207.851
208.01
208.248
205.42
204.899
204.394
204.022
203.668
203.32
202.957
202.636
202.427
202.351
202.357
202.392
202.438
202.897
204.454
206.402
207.584
207.965
208.147
205.395
204.84
204.074
203.83
203.576
203.284
202.946
202.629
202.419
202.337
202.322
202.312
202.248
202.592
204.141
206.223
207.432
207.964
208.152
205.431
204.563
203.879
203.78
203.621
203.385
203.08
202.767
202.546
202.449
202.421
202.393
202.292
202.655
204.144
206.249
207.374
207.996
208.19
204.711
204.174
203.93
203.949
203.837
203.601
203.31
203.008
202.778
202.653
202.611
202.568
202.499
202.968
204.535
206.24
207.568
208.093
203.812
204.163
204.13
204.27
203.977
203.64
203.328
203.089
202.945
202.892
202.847
202.899
203.565
204.561
206.628
207.85
208.25
205.008
204.205
204.636
204.68
204.347
203.963
203.661
203.442
203.289
203.23
203.22
203.565
203.712
205.582
207.452
208.122
204.823
205.017
205.238
204.901
204.488
203.973
203.813
203.705
203.708
203.547
203.544
204.976
207.076
208.102
206.108
205.645
205.262
204.645
204.177
203.948
203.945
204.002
204.924
206.656
208.131
206.844
205.772
204.78
204.453
204.196
204.003
205.441
207.136
207.261
207.454
207.604
206.644
205.969
205.945
206.969
207.318
207.484
207.56
207.681
207.728
208.348
207.012
206.172
206.026
206.424
206.926
207.198
207.315
207.414
207.474
207.53
207.613
207.684
209.273
207.501
206.655
206.055
206.282
206.596
206.871
207.034
207.097
207.135
207.175
207.317
207.416
207.493
207.679
210.103
208.506
207.303
206.252
206.215
206.306
206.484
206.652
206.751
206.774
206.778
206.807
206.894
207.147
207.393
207.56
209.891
208.131
206.644
206.276
206.155
206.199
206.328
206.474
206.579
206.63
206.666
206.728
206.873
207.171
207.504
207.856
207.637
211.204
208.691
207.036
206.38
205.996
205.858
205.891
206.015
206.178
206.342
206.492
206.644
206.812
207.005
207.245
207.536
207.882
207.901
207.776
209.969
207.914
206.384
205.803
205.417
205.235
205.215
205.294
205.446
205.651
205.888
206.153
206.47
206.844
207.206
207.443
207.556
207.766
207.703
207.967
206.403
205.689
205.122
204.71
204.459
204.333
204.305
204.393
204.617
204.943
205.326
205.791
206.38
207.014
207.468
207.663
207.675
207.724
209.569
207.789
205.894
205.115
204.533
204.098
203.787
203.558
203.408
203.381
203.54
203.871
204.311
204.876
205.665
206.637
207.418
207.749
207.8
207.852
209.711
207.25
205.227
204.574
204.083
203.669
203.335
203.042
202.812
202.701
202.774
203.016
203.388
203.917
204.83
206.15
207.296
207.856
208.006
208.098
207.176
205.622
204.452
204.086
203.777
203.434
203.109
202.786
202.509
202.355
202.374
202.536
202.776
203.147
204.086
205.692
207.131
207.891
208.138
208.278
204.337
203.762
203.84
203.653
203.379
203.08
202.745
202.433
202.251
202.248
202.364
202.498
202.699
203.615
205.374
207.015
207.812
208.165
208.304
203.558
203.355
203.996
203.848
203.52
203.206
202.869
202.533
202.318
202.29